# vtk DataFile Version 5.1
vtk output
ASCII
DATASET STRUCTURED_POINTS
DIMENSIONS 100 100 1
SPACING 0.34965 0.34965 0.34965
ORIGIN 0 0 0
POINT_DATA 10000
SCALARS volume_scalars double
LOOKUP_TABLE default
0.011400348905 -0.74497840026 0.22805516126 -0.41605755574 0.94257601582 0.24898560146 -0.85409763142 -0.23819867601 1.0175437581 
-1.2403563449 -0.25148200412 1.1017835389 -1.1730062301 -0.74744573399 0.73702359706 -0.67209950036 -0.26236751298 0.098545692302 
-0.053164360975 0.20743017749 0.59368386646 -0.56330682267 0.57320239852 -0.2344007302 0.082213213132 -0.062187972813 -0.49577800325 
-0.40203765953 0.95642745113 -0.32505247331 -0.019538654643 -0.30427786919 -0.3243951157 -0.34450883425 0.22004114751 -0.30628474096 
-0.36734618819 -0.38937691315 0.22120831808 1.3426879991 -0.67735876793 -0.23403432334 -0.38349358748 0.07250235852 -0.16885268217 
-1.3698107683 0.40075493025 -0.92309376791 0.020709121138 -0.20558942918 0.6888742041 -0.86298048795 -0.1765500759 0.49521403976 
-0.79212573383 0.95551925152 -0.10274875979 -0.44622510833 0.19783778028 0.38088829496 0.032958584958 0.42933662801 -0.24509030558 
-0.060250627765 0.13333391974 0.22590890695 -0.11255726066 -0.16634594149 1.2224115944 0.20948827019 0.043166204895 -0.31474075952 
-0.97209583318 0.075641292025 -0.085802795402 1.2216538961 0.068061904948 0.19794079108 -0.17839494743 -0.23173410442 0.047676122118 
0.38524210428 0.12745949056 -0.47700150109 -0.00012823488751 -0.37455560623 0.11992432414 0.77266808779 0.3893382901 -0.038339557236 
-0.36278516946 0.09796287547 -0.27809263024 0.029229652503 -0.29488501267 -0.95529945335 0.2677599391 1.4878874372 0.28629037981 
0.94392599125 -0.060607904753 -0.44358447304 -0.2017742563 0.7544881896 -0.24869897139 -0.89521694509 0.45982310163 0.48023909464 
-0.47005135321 -0.51846900486 1.1036816619 -0.23299176737 0.064239481711 0.54890127982 -0.3913979346 -0.20462089877 1.0918590222 
0.066056329302 -1.3221281775 0.68342924958 -0.29031414885 0.69231749316 0.35769968169 -0.54664618634 -0.51002092209 0.17113814927 
0.62069327074 -0.25137296578 -0.21528619269 -0.62198032581 -0.2111869475 0.6014069197 0.75514466199 -0.12268066545 -0.0025340186288 
0.37197566939 0.56336940538 -0.01951970056 0.34038345421 -0.75445967712 -0.064727688642 0.41818477496 -0.070984393573 0.16287817256 
-0.55242132941 1.1571797788 -0.74459022182 0.11806348292 0.43312350508 -0.78580644424 0.20111680754 -0.64137098919 0.52674854649 
0.19531936239 -0.12730843276 0.049518110885 0.088667034806 0.43863193255 0.68072991425 -0.44224550033 -0.73435247413 -0.44525920516 
0.34114172256 0.31199765159 1.5069438426 0.47844235323 -0.05999254041 0.6554655845 -0.38991097296 -0.27326549956 -0.55966767777 
-1.1571506749 0.58194985667 0.085796914986 -0.32406568235 0.58368699973 -0.015016683092 -0.91639360524 0.33190171647 0.15877546751 
0.15487418064 0.1459665654 -0.75919775857 1.0906777278 -0.3870536829 0.60669529718 -0.17364049789 0.036844405006 -0.050548593442 
0.11843842063 0.66394388331 -0.51157684801 -0.11617731265 -0.42910021788 0.031861629654 0.030446620751 -0.39566049625 -0.4638354213 
0.098589879517 0.20319794821 0.45171938989 -1.103236904 -0.11882321074 0.038264514701 -0.79508886985 0.12097900016 0.13800111735 
-0.6934014802 -0.12959325089 1.2377258119 -0.073926581246 -0.11814146511 0.5133971661 -0.69337664459 -0.032435295342 0.55800949343 
-0.85485703167 -1.1089166161 0.989254154 -1.1351999551 0.56470073775 0.40142300355 0.16592496903 0.62948035508 -1.0758389333 
-0.14451762416 0.084718332117 0.506159844 0.16954585941 -0.026811425561 0.58495971288 0.99389837302 -0.44787107803 0.35253471929 
0.2067280219 -0.15587671496 0.15751262545 0.2288639412 -0.31432624083 0.18901878247 0.38288985392 -0.19283883521 0.20544913515 
-0.649478244 0.010274882796 -0.29272220259 0.41686612267 0.53863019848 0.28019536976 -0.80996059767 0.059636927904 -0.28282069393 
-0.032071830541 -0.58413755369 -0.011041963877 -0.34920576247 0.40020010042 -0.10692339899 -0.6580255767 -0.3466397367 -0.16903150442 
-0.1989520234 1.3126393182 0.1825619178 -0.32813676082 -0.89587794068 0.34742783108 -0.33257149918 -0.93435354794 -0.053541977751 
-0.62811338544 0.69255300194 -0.19080240121 0.21963244009 0.29935625687 -0.52029707095 -0.15745497144 0.47178897536 0.25417739828 
-0.80069453769 -0.1471708748 -0.10397473245 -0.17582072469 0.58966637271 0.73715015628 -0.19031200091 -0.68447566116 -0.7455704079 
0.43188198134 0.78800601019 -0.67201502854 1.240022685 -0.0092892569973 0.82170563955 0.40422294536 0.57512328504 0.63603947333 
-0.61535012651 -0.20566872193 -0.19168184099 -1.3338710751 -0.13323255295 0.47855194769 -0.38122490703 0.58770650278 0.016499917223 
-0.4719239235 0.0239119964 0.69362045613 -0.4833780645 0.10371786513 1.0902833168 -0.22259264442 0.22281966967 0.3679440488 
0.071586179187 0.21849250694 1.0583032166 -0.25767471987 -0.8310092898 0.55841432079 0.039863990656 0.27489690198 -0.15575347062 
-0.46268442701 -0.27439039268 0.66594966075 0.29317004445 -0.1473411147 0.14408945092 0.26288937662 -0.040605799147 -0.083657422375 
-0.46460232089 -0.74441911924 0.4004163706 -0.72878106365 -0.033976247509 0.26870135585 -0.28845942399 -0.44200221368 -0.27109724679 
-0.77544595862 0.21353142369 -0.3366377091 -0.78458320695 -0.33565684143 0.088917181022 -0.55477463217 -0.79406093244 0.32088609106 
-1.1469094648 0.11368130709 0.074295551716 -1.4105715674 0.97289199205 -0.46071386675 -0.48813396539 0.064511415371 0.58509371795 
0.70909097601 -0.22813353045 -1.1800106282 0.17662581741 0.16029484087 -0.65392753163 0.8447528202 -0.22615347626 -0.23751304997 
-0.24004931301 -0.1509965425 -0.48761748335 0.72230377746 0.084694839831 -0.30403624575 0.51091573374 -0.30020076078 0.87336073905 
-0.15095030611 0.54536333857 0.30968543684 -0.099503781895 0.86732477139 0.035410169181 -0.55567119954 -0.61592645118 -0.4143812145 
0.8562104099 0.51204185542 0.7143117178 0.087829209093 0.55984118406 -0.17805931449 0.34834663833 0.56176209649 0.13680774199 
0.010120533121 -0.5144310194 0.11293658692 0.75090984838 -0.58256388561 0.49029807878 0.66180898471 0.70920110261 0.35196235028 
-1.3774584159 0.36953160954 0.36109374575 -0.91246172832 0.83852610348 -0.63218068696 0.22204935868 0.54797381932 -1.0145013881 
-0.7517320262 0.59975891226 -0.21789607402 0.86717649799 -0.28769335744 -0.035151478663 0.8752907601 -0.70491633947 -0.093235526605 
-0.57203535816 -0.29684678366 -0.45774597928 -0.20112151127 -0.18952797352 -0.17181623348 -0.73654243789 0.26914807705 -0.6420025182 
0.50893008853 -0.38018831913 0.88534593038 0.45601847354 -0.062417056348 0.029089370677 0.52948975723 -0.071874664935 -0.31606072471 
-0.33381338614 -0.5307957357 0.24473454828 -0.96925507269 0.38186024674 -0.33888419696 0.4663775606 -1.1918794509 -0.50080637514 
0.0076392465536 0.7851560275 -0.20298679762 -0.63463722281 0.49504859323 -0.25552149851 0.4102412405 -0.37194603559 0.60902354138 
0.22182284913 -1.2432772316 -0.088622679431 0.4066000821 1.0213397483 -1.8834546349 0.77157138378 0.59841614818 -0.20001209639 
0.058145333034 -0.24359490746 -0.039865280625 0.22696292191 -0.27865731997 0.63927448431 0.060061261325 0.30469839289 0.26576489561 
-0.19026989831 0.35860605582 0.41496834514 -0.15290952788 0.095913331344 0.3654120582 -0.72908589067 0.039560481918 -0.64987441077 
1.0588179479 0.5971579119 0.085592611444 0.10643215653 -0.13479788871 -0.12871833952 0.36572937905 -0.7588140405 -0.063328885861 
8.7055355982e-05 -0.31540487305 0.066387753744 1.0554760454 -0.89410051069 1.1638452231 -0.30701879155 0.22081650876 0.26997152164 
-0.6746364444 -0.58484628327 0.45636669075 -0.38188313788 0.32119211332 0.099795378801 0.036936758037 0.23155453213 -0.14401369981 
0.037128265677 1.0460684576 -0.79502212385 1.2040460646 0.3329588913 -1.5477488314 0.016648728474 0.084979993784 0.54847975222 
0.60638999866 -0.51375679762 -0.95662038799 0.4653186051 -0.71452649302 -0.030597300923 -1.1679267276 0.19521297986 0.010038960263 
-0.080602015476 -0.33048337962 0.64418079568 0.3386380565 -0.24747962748 0.32940951837 0.054923850934 -0.033638528769 0.38918166698 
1.1734398281 -0.75764966546 0.42702439006 0.032280725586 -0.40098525 0.23481332687 1.0354002827 -1.654510174 -0.54933687408 
0.86117930346 -0.13453086395 0.28248576092 -0.20263035202 0.56199750878 0.82663676677 0.58145562379 -0.055141969583 -0.802394905 
1.1871143102 -0.53524127366 0.012972883836 0.67248797796 -0.19976780417 -1.5369513736 1.0771018552 0.46020595735 -1.1094208303 
0.97523130266 -1.2164062901 0.63381744651 -0.50104268113 -0.99974661435 0.84062954945 -1.2687087406 -0.033039461854 -0.29834554451 
-0.30567089896 -0.099941329704 -0.11941923772 0.18078533012 -0.16487460073 -0.42555090265 -0.4645828564 -0.067525572208 -0.19323772522 
0.88387715864 0.96211291259 -1.3718248472 0.43393747708 -0.088159643804 -0.91145697882 0.83455088856 -0.6487789439 -0.065256998291 
-0.086941607114 -0.67880787025 0.10487928288 0.79353963932 -1.2306889909 -1.2993014316 -0.35808631638 -0.018113055017 0.54777498419 
-0.025318618278 -0.33536080645 -0.10936459637 -0.81933564899 -0.65031816654 1.5697920907 -0.20572584356 0.10415033581 -0.3049242915 
-0.027259817242 0.53335259336 -0.46417619139 1.0167819447 0.33830124278 -1.2578797093 0.85863387613 0.39129001431 -0.54569244371 
0.3522262583 -0.8257916212 -0.92493579793 0.22989976196 -0.39248667985 -0.32441308446 -0.48335341264 0.12333939917 0.45140494112 
-0.39824032076 0.41152850365 0.60021738635 -0.38279857117 -0.63416773007 -0.2900304136 -0.085257300289 -0.64488711041 0.13120183107 
0.53161611574 0.30363819485 -0.31446464093 0.51802696099 -0.49308030916 0.14780475368 -0.24461220011 -0.063460496308 -0.35626709537 
0.6053144652 0.49662435274 -0.15045446063 -0.40744546006 0.35948158944 0.7876651783 0.0064978134632 -0.20753780214 -0.36131166829 
0.026869771813 -0.080386575169 0.50650691877 -0.3551131148 0.39885091508 -1.0090647623 1.4907110332 0.47216288046 -0.26991665817 
-0.14394839799 -0.83194870747 -0.16435165916 0.18999806643 -0.45617297159 1.048544916 -0.66313546911 -0.066804592073 -0.098011637835 
-0.098614301156 0.21673825285 0.003012208772 -0.15523919891 0.54770939252 -0.39615710723 -0.99078423421 0.79811248518 -1.1362084757 
-0.84376968319 0.81862236212 -0.00089442859336 0.44496038948 -0.45228009858 0.27925990308 0.99915591088 -1.0650409992 -0.96648571305 
0.71552344983 -0.2834892197 1.0741099152 0.67785696303 -0.77358417464 -0.20831619404 0.34088386986 0.036917314385 -0.21087455143 
0.21715163644 0.73691346293 -0.77671974157 -0.40847788886 0.43327474485 1.5212697663 -0.66063558541 -0.7097454016 0.70493329521 
-0.81079986407 -0.19606364276 0.16528717479 -0.17850389819 -0.51793503204 0.29494852912 0.43933471127 -0.81797066353 -0.82230897289 
-0.4000793731 0.19907128522 -1.1469901748 -0.84712802313 0.68454431006 -0.19800902127 -0.23562463407 -0.23456060841 0.32254547463 
0.17331091699 0.094121603291 0.62505750458 -0.042777204088 0.24674824751 -0.1199531846 0.59527054938 -0.36037906922 0.20581802194 
0.22888565183 -0.020009431223 -1.1181274157 -0.16539579469 -0.46602228626 -1.0582054976 -0.52022602152 0.66583765862 -0.0005314136109 
0.12020526875 1.3678936237 -0.31340246926 -0.99422620463 0.59033147116 1.1102431059 0.16051344869 -1.5163380539 0.87410109622 
0.56027784452 0.49709747481 -0.56700798216 -0.30857165193 0.94403875504 -0.039467144041 -0.029373975285 -0.083682166095 -0.26853052257 
-0.4302792442 -0.33232767207 -0.85478001828 0.64603465584 -0.44543825499 0.45243777051 -0.56952353099 0.17035299372 0.40903884155 
0.14504446641 1.0040265148 -0.47094470385 -0.17451144725 0.63372095779 -0.74299826505 -0.7428499028 -0.042897964433 -0.2346915041 
0.15666132786 0.17191161302 0.42447991082 0.26764214502 -0.37649010811 0.91652881652 0.22962498954 1.2245043127 -0.60269424871 
0.46558708046 0.58625289871 1.1662681988 -0.36777876272 -0.98041657674 0.76491343646 -0.096048979356 -0.011166740144 -0.30886212335 
0.21024149958 0.7366607137 -0.54157805341 -0.46985731366 0.57960614376 -0.10040558146 -0.73887636848 -0.57061278054 0.70764582612 
-0.89846938774 0.52138978677 -0.0080255324613 -0.55538839778 -0.25568028668 0.082417744451 0.4565044139 -0.69035907004 -0.10920532799 
1.3657475247 0.00023627182895 -0.14026130207 -0.36478742487 0.45681179776 0.058534504803 0.13338911295 0.48255398875 -0.077442465718 
0.35095931969 -0.28779426402 -0.84763068845 0.78262291717 -0.75087067523 0.10804857023 1.266767234 -0.15179410202 -0.067623861333 
0.64094862733 -0.11159196011 -0.65404570475 -0.06319021712 0.86740261544 -0.044928481775 0.52401447925 0.76805888908 0.35724192106 
0.22058676238 -0.22066933327 0.076099262248 -1.1743282339 1.2307082973 0.36036200145 -0.95059602252 -0.76342810097 -0.37697292843 
1.2930037801 0.41965189885 -0.70012950563 -0.041551444373 0.13485330409 0.27147110223 -0.17906979894 0.6527608779 -0.23057092293 
-0.41000502075 -0.45210194755 0.90097222252 0.25704045953 0.06087390683 -0.75955907511 0.57213395367 0.029315267231 -0.14555057388 
0.60397580246 0.48321761404 -0.48234963061 -0.6961479547 0.9684919511 -0.12579187222 -0.40469233109 -0.46948697047 0.41555998876 
-0.50043922929 0.26103722237 0.22243681782 -0.069387082906 0.37736538455 0.48367218411 0.33661547447 0.4571689003 0.15949505887 
-0.52177799379 -0.083386955869 0.42067254933 -0.045806374018 -0.25458518124 -0.23430838771 0.16246836438 -0.36681661293 -0.11257359273 
-0.10668242423 -0.62718250605 -0.031872779266 0.35355032871 1.0948676565 -1.440477412 0.012139105176 0.066474501839 -0.2719095996 
-0.31719442266 0.26924682217 0.35904750032 -0.33407514375 0.31881596892 -0.61579591809 -0.21976523998 0.21333541011 -0.41248751596 
0.43921893552 -0.19722085912 -0.81956165445 0.73642640885 0.22012454537 -0.1387397989 0.025819482793 0.27499523507 -0.57408074881 
0.79409230125 0.077976188759 -1.2729578885 0.62170054114 -0.93733487797 -0.14549978883 0.41663805267 0.051261701917 -0.031684620957 
0.3752089936 -1.4699592637 -0.41238013312 -0.063961701464 0.97315881135 -0.13328931474 -0.11760895003 -0.046027177829 0.040380241892 
1.1937421583 -0.77147111509 -0.4173678336 -0.39484389338 0.67777866818 -1.0517825947 -0.53083551805 0.56865110734 0.2427389021 
-0.15724574875 -0.30438973906 -0.73176416947 -0.39888086026 0.71275477614 -0.061206648669 -1.0005014194 0.7552615484 0.11371238295 
-1.334414728 -0.1083029775 0.59888914898 -0.11321590154 0.48696559371 0.0083538083108 0.33368467445 0.61784394874 -1.2285566192 
0.086382533388 1.0546656315 -1.5048404043 0.10141367476 0.71344845508 -0.14046094669 -1.1726976436 0.48022540332 0.45550961105 
0.15184016946 0.78244931879 -0.75019238658 -0.0084090114525 0.2149615566 -0.71092269024 0.68208405014 -0.7591945036 -0.070797951259 
-0.76165495176 0.16700844215 -0.22249489511 0.045549506329 -0.38255229193 0.12268289185 0.17860085557 -0.58705879886 0.25393658381 
0.061313849475 0.76268703671 0.22943381022 -0.47024077008 1.1333153485 0.0059174750336 -0.23353360357 0.70707036321 0.12860077145 
-0.29226673028 -0.15577939323 0.57410232798 -1.1739157241 0.83818063171 -0.22205514879 0.031291183523 0.42754618092 0.24143869761 
-0.26194534827 0.49093103704 -0.059968924557 0.37597557379 0.076656992767 -0.49911505071 -0.81620998403 0.29621906622 -0.050000219449 
-0.66496156996 -0.44946177052 0.62727181358 0.66432546695 0.037519878226 -0.3738601266 0.1883109835 0.13177958049 -0.56443108621 
0.015181749365 -0.86366875115 0.70711243896 -0.34936942339 0.28251652928 -1.0230226811 -0.61837486201 0.20887432745 -0.69332834136 
0.22779083495 -0.12839179509 -0.43359808819 -0.29079322857 0.86878353996 0.11071682373 -0.75647005483 0.34265930741 0.65773813154 
-0.026576973511 -0.41697566276 0.05322346887 0.029003055067 0.49248582539 0.018066382046 -0.71537491578 -0.21365800731 0.56469459324 
-0.52106218617 0.0038135162802 0.022199727196 -0.23462087234 -0.26438305867 -0.20660127214 -0.44005632495 0.56690388849 -0.45859056904 
-0.092935044494 1.1111849616 -1.0273442232 -0.034218277169 0.030473694855 -0.58272369988 -0.34375628794 0.53024875251 0.4090164023 
-0.15708811142 0.48225115408 -1.0706191301 -0.0086807077208 1.3400175905 -1.0430941061 -0.53168725679 -0.99298842265 -1.0190291425 
0.39291349186 -0.042533311251 0.54476138502 -0.0009438827749 -0.20093621954 0.033447828733 -0.12081604146 0.0024744055241 -0.31022214388 
0.70209674815 -0.36391732039 0.46549021681 -1.4953530076 0.67345506799 0.52069301198 -0.95269368508 0.44297099333 0.088909572837 
0.059411085137 -1.1113883771 0.31146927608 -1.3001866202 1.1147186178 0.83762141924 -0.2910959512 -0.13215847288 0.30687796729 
-0.051213109429 -0.78766499153 -0.50641313586 0.03953105831 -0.68307756898 0.98546596442 -0.15331199347 -0.62636817737 -0.13513147519 
0.2839178743 0.273845556 0.72608446736 0.73698928459 1.0638709777 0.47093990451 0.6712086183 -0.66024966157 0.10729546089 
0.4873473613 -0.91926310896 0.59150223323 0.17787211487 -1.2408985587 -0.19601007501 -0.41454454557 0.98836120766 0.30060868602 
-0.29667107774 0.43855878502 -0.2992393706 -0.41401354614 0.79801735682 1.1027238 -0.7935265099 -0.21316448556 0.27595488766 
-0.22856025466 -0.0078547484339 0.48344311526 1.0205192771 -0.16437207379 -0.56949520784 0.44139605922 -1.1075898642 -0.61277259376 
-0.46163495877 -0.27770729368 0.38994366844 0.81489915816 -0.30477622877 -0.53970253178 0.60801777754 0.38599155559 -0.14243321162 
-0.2134886953 0.95373064963 -0.75493851075 -0.010891540277 0.064570996793 -0.98947285629 0.71988301649 0.70334809326 -0.49943142425 
-0.33106691431 0.42552200261 -0.65628744332 0.023911390447 0.37038836031 -0.33249871211 0.27949689755 -0.23341652085 -0.8792334164 
1.5423620498 -0.25873380593 -0.19666455961 -0.74498071427 -0.17518135996 -0.40405344804 0.0055515287436 0.18773991725 -0.78691237131 
-0.079427465711 -0.21210864453 -0.30564816736 -0.70672857507 0.2652534592 1.1509993757 -0.69145758072 0.72106024626 -0.33428626718 
0.15385498967 -1.0314624592 0.24852826744 -1.0886637828 0.45592989698 0.23421840882 -1.7248043631 0.33857547872 0.79765680601 
-0.052786525023 -0.41407043151 0.15617548019 -0.18514323342 -0.25781697103 0.93238443429 0.073278340369 -0.52679722012 0.5475455059 
0.76121820933 0.38985188846 -0.84054765111 0.30308203458 0.51766045991 0.59477595703 -0.059200335693 0.27944412717 0.22660772502 
-0.17170091005 -0.18578768944 -0.363571059 0.45285370839 -0.076492444097 -0.038674567995 -0.63236792826 0.44308788571 -0.25493727495 
-1.1706779718 -0.24013068632 0.3618105805 -0.23279413521 -0.045191115402 -0.16691436694 -0.051694177379 0.21877933455 0.27391444408 
-0.58175542645 0.070152551436 -0.6423352597 0.24182306823 0.69239045136 -1.4826108362 0.28093166051 -0.40310837573 -0.074714846176 
0.21227080206 0.34279590913 0.086255589923 0.35150093958 -0.35612907483 0.071405521248 -0.20347200704 0.11346886901 -0.26580809649 
-0.51539264939 0.45926039886 -0.39846816324 -0.046616445807 0.79713884894 -0.5252082562 1.1974710015 0.45578739382 -0.5190924909 
0.77673443553 0.20421598106 -0.30053448298 -0.29825129197 0.2264898555 -0.31319466059 1.0193698041 -0.56740902718 -0.034721637493 
0.48154632745 -0.039884898593 -0.81982301554 0.63314024609 -0.38242928355 0.43631845056 -0.48015878839 -0.041643963211 -0.37802950854 
-0.45376627686 -0.34800618683 -0.27295509276 1.1281153859 0.43362168811 0.89525292415 -0.18955390563 0.50109540609 -0.24095106875 
-0.44965656211 -0.50009182965 -0.19902105632 -0.069732960805 0.47127117893 -0.015195488544 -0.94636145932 0.030250467084 -0.32769608215 
-0.28268373213 -0.0097406777946 0.60342598952 0.51691306533 -0.10507181996 0.37471235509 -0.24641851049 -0.42473471833 0.38440954648 
-0.31349025911 0.69279319621 0.15560468622 -0.44693107558 0.12539366719 0.32894129085 -0.097928132338 -0.55524978531 0.027733920188 
-1.1516902719 0.38948097322 -1.0417625226 0.48828119625 -0.45383254132 -0.52729195517 0.18708955422 0.18046563776 0.12792450582 
-0.7289081281 -0.0025699953359 0.4504499924 0.32940190075 0.40669242955 -0.9810594265 0.58478223834 0.35762762394 -0.10351678032 
-0.33046893063 -0.28283795267 -0.68808011497 0.27517721008 1.043172919 -1.2952482503 -0.23504955484 0.42277877061 -0.85601745305 
0.62639997303 -1.0338337469 0.52644954673 -0.16856550711 0.0019639505412 -0.14192643709 -1.0900597942 0.31769399886 -0.40228164092 
-0.061648977748 0.30544085535 -0.7647082073 0.89005804796 -0.17834632816 -0.742514151 0.55518006077 0.37669427134 -0.56993780447 
-0.48336110902 0.47746882941 -0.23970949288 0.0098195136838 0.84279953928 -0.088424615933 0.36836064847 0.012730031853 0.74527847686 
-0.27147856561 -0.084484238568 -0.5573709274 0.2912545307 -0.54468863362 0.28368286107 -0.00014023435977 0.57405200757 0.51410993441 
-1.0085666384 -0.23122561882 0.5796260058 0.95428188278 -0.0099035568947 0.45324335407 -0.6157547342 -0.39033773351 -0.40264127904 
-0.93621367355 0.58355794288 -0.29330628903 0.32482644675 0.54413983678 -0.10090796098 -0.11828624084 0.75184174017 0.25023768632 
0.032121861448 0.69950324557 0.49391439568 0.75870004873 -0.57035649828 0.96060998019 0.30136529383 -0.83812637817 0.37000907969 
0.068310735818 0.067329122119 0.91491369945 -0.94282604513 -0.49137173359 0.31439550177 -0.20533050526 -0.26069230589 1.1710939624 
-0.22329112871 0.37717121418 -0.40918311829 1.4904006668 -0.56292999333 -0.11412576161 0.52771241477 -0.30503318465 -0.0198980269 
-0.13206048274 -0.62499375657 0.50455046091 -0.26226188725 -0.037323487829 -0.37111696627 -0.11484588814 -0.15159783079 -0.3947628968 
0.57056972205 0.19716746994 -1.015270766 -0.095545631297 0.64148530607 -0.42668140373 -0.36214405176 0.62921517083 -0.58468568296 
0.30467300643 -0.59302108748 0.43583728904 -0.38654977895 -0.089983096296 0.11191606026 -1.1978608068 0.33788100434 0.61146174053 
-1.6655083424 0.85184669969 -0.52665912206 -0.19880569401 0.27589966962 0.2962833378 0.40667924801 -0.27691439927 0.42891849445 
-1.1176562629 -0.23274700904 -0.17443193687 0.4195003285 0.23528756905 -0.80032124063 -0.16430453004 0.93191670033 -0.096245114512 
-0.52089755011 -0.73295545674 -0.27925113187 0.92234822846 0.69515424429 -1.0162056456 0.4690851113 0.53286895692 0.53495850523 
-0.82654706889 -0.18256414928 0.31584783176 0.19066365077 -0.52384516403 -0.15677312749 0.56183581057 0.49474706489 -0.54461717267 
-0.44879039671 0.33031361816 -0.2885294144 -0.55604671033 0.51341981574 -0.49131018938 0.42150418021 0.56615499479 -0.42533477399 
-0.032163909718 0.41899648819 -0.015174703744 -0.096367654272 -0.83718016693 0.36458357653 -0.064776232122 -0.83291569072 -0.18080094651 
-0.20623384434 0.014931803179 -0.66465804517 -1.291771281 -0.093164067817 0.10922269828 0.67336282039 -1.1949893171 1.1038835526 
0.10471144739 -0.89603977272 0.39776051096 0.7753509425 -0.11850041495 -0.23273568181 0.45045146089 0.43990687327 -0.26554921758 
0.27923833568 -0.03828861331 1.1524231154 -1.1086511319 0.46224148707 -0.10306418769 -0.35796715719 -0.12694470661 0.57106080325 
-0.31942050265 0.6482097663 0.74360739947 -0.62302553256 0.30405920581 0.14729875257 0.11964482636 0.79858882306 -0.99712744158 
0.26454997341 0.83124175437 0.17223761286 0.42115373396 0.07987464071 -0.17869348952 -0.31483933279 0.49779723542 0.13565655812 
-0.15042382792 0.78562040468 -0.35562012627 -0.55463511855 2.3913435454 -0.98058357181 -0.0018797014998 0.50095013078 -0.11670837453 
0.013400535161 0.33822840676 1.0199746812 -0.24928144852 0.54944199525 -0.83019894727 0.2972094221 0.98298478642 -0.21867833037 
-0.055852803551 -0.91670397131 0.13827637446 0.20534524041 -0.78778211536 -1.1415437899 1.3336824428 -0.49203154398 0.2295705114 
-0.70751719722 -0.34836149681 0.051717764149 0.71370143327 -0.14098174642 -0.66771454343 1.0377142886 -0.47446945588 -0.54076627019 
0.046895923735 0.75773015672 -0.40868990769 -0.092126101825 1.0413757138 -1.1160242958 0.26981182763 0.72770689507 -1.5929721158 
-0.10390655881 -0.47251162155 -0.82327447739 0.0059754269102 0.2830532557 -0.34579744141 0.7472019884 -0.61508058526 -0.24524324765 
0.029150720562 -0.38311959284 -0.39539757641 -0.47878103505 0.4109665461 0.52126800735 0.67581428468 0.27536257944 0.20659719282 
-0.34334828298 -0.89253613333 0.019972235311 -0.10526529532 0.0027017038897 -0.075052561109 0.63798914847 -0.030563482245 -0.54409403468 
0.077074287379 0.9840282971 -0.2717282021 -0.78123249723 0.78503862091 0.32846744991 -0.92607710987 0.42877529765 0.38289464023 
-0.2555149073 -0.15042388985 0.44060775148 -1.199355431 -0.062923538012 0.53714036417 -1.0556220866 0.066609177892 -0.91858379199 
0.57820640329 0.43090313516 0.18502978742 0.2153555954 0.11259641064 -0.39529494801 0.23801874887 1.0215759947 -0.56820064008 
-0.16593901673 0.37742303995 0.029165746463 -0.8678077579 1.3346098821 -0.21032269591 -0.025440979922 0.95403886795 -0.12472073201 
0.30255443505 1.0139450345 -0.12361371516 -0.16203552443 -0.70641495227 -0.26756312476 0.66296377989 0.038020025326 -0.41775597411 
0.39415764391 -1.0105297107 0.80629534378 -0.44866278895 -0.55397968394 -0.61731552537 -0.24781722903 -0.38459168819 -0.026964522467 
-0.21637776373 -0.51843127636 0.25672538929 -0.76569874198 0.80672958063 -0.44929186526 -0.41349180713 0.40456537214 0.035311170718 
0.81721581784 -0.1017590569 -0.29035956036 -0.51777841715 0.79973492237 -0.28405633489 0.31952117546 1.0513133932 -0.95866917186 
0.88388735401 -0.26345256726 0.29021112418 0.71375967599 0.20025449711 -0.55430340269 1.394947419 -0.87313012827 0.34513163439 
1.1766193484 -0.87621239592 0.74441246922 1.1303265504 1.1612128178 -0.14529268111 -0.49514094365 -0.67556098847 -0.35903246163 
0.57572285508 0.65569973302 0.065103124345 0.19286809626 -0.19345704169 0.43377203036 -0.27133199182 0.25938860374 -0.71749324959 
0.17361235724 -0.25050396022 -0.45096742169 -0.35564045054 0.049970339485 0.12123196027 -1.428206966 0.59103671592 0.48615196939 
-1.0180905485 -0.26242786491 -0.59526846194 -0.17739255476 0.69301845305 -0.21749571729 -0.049799540279 -0.43271458448 -0.042251944872 
0.4410501635 -0.67357307681 0.13717971996 -0.4287858271 0.19995951228 0.27489428383 -0.31451213641 0.47962358466 -0.17991301244 
-0.3212376689 -0.83248220891 -0.077988345163 -0.22130502375 1.1643564665 -0.051510068629 -0.061837089561 0.47447982293 -0.017383150369 
-0.29216342685 0.43649468868 -0.55285089908 -1.0504336073 -0.61616740178 -0.19510582785 -0.61424949405 0.40774225871 -0.60219395566 
0.17160105277 -0.53072577306 -0.31637439608 -0.2870112147 -0.27186608831 1.0792300295 -0.66527224454 0.065556079525 0.29303643412 
0.14856066622 -0.13724736069 0.84768836543 -0.59102807463 0.099518944369 0.48154190732 -0.6112372143 0.14004229455 -0.37404906751 
0.46857387494 -0.91544876822 -0.02002852625 -0.32161343861 -0.29181211122 0.75150868854 -0.82481010523 0.61720140517 0.10964220722 
0.26236991262 -0.14003126116 -0.18348870136 0.73991562821 0.26121348179 -0.063629183206 0.00055510049807 0.42064308651 -1.0457891532 
-0.030830043187 -0.67584395348 0.19700674868 0.80933568543 -0.84636829779 -0.42134688857 -0.44118348208 -0.028751487427 0.21059863611 
-0.78554389595 0.48641711117 0.2284914041 -0.65058038221 0.48787858098 0.044488271749 -0.19003710805 0.45611859745 -0.22990499464 
-0.50509846793 0.063616656394 -0.39568583753 -0.24709195996 0.2983077023 -0.59301849102 -0.90838171304 0.25390100615 0.24134581506 
-1.3422024216 0.48704930736 0.048604804811 0.1384351403 0.49393767826 -0.15937071885 0.09786883748 0.0098530069744 0.05930738828 
0.27486193477 -0.42261443221 -0.66416538916 -0.8951938389 0.58613812758 -0.040479620142 -1.1906316385 0.47998823759 -0.13508537011 
-0.49862388155 0.04631569401 -0.22181191306 0.53090950982 0.38323402701 -0.20520135252 -0.69613316815 0.227981489 0.087059802466 
-0.52338779369 0.44200229378 0.28536513422 -0.21477676005 0.16176157263 0.92047789224 -0.56692302337 -0.14999591976 0.12932565733 
0.12548612469 -0.062933528183 0.73722087546 0.53341670331 -0.95576037363 1.438586436 0.65963886556 -0.17253246515 -0.22589596962 
0.80273966023 0.35446290477 0.25957138619 -0.038115459232 -0.43786271106 -0.28082627634 0.90657898951 0.28816192637 -0.4319953219 
-0.26937730229 -0.56401717645 0.16633483069 -0.023716048206 0.28517358642 0.24723898287 -0.43730920184 0.064486991815 -0.041029957116 
-0.94026929116 -0.34441762505 -0.0049471900495 0.85445214023 -1.2822808517 0.69644182547 -0.48032312929 0.67830083391 -1.2471603078 
0.53095492419 0.60168328875 0.45678959718 -0.1209940957 -0.5593839644 -0.146001888 -1.0779102385 0.32352482978 0.53760433209 
-0.5234767465 -0.039871928397 0.636286478 -1.4699127884 -0.061045707383 0.44690687102 0.69448110858 -1.1961921064 0.59958302894 
0.2719095736 0.016563411215 0.28348197102 0.17600229781 -0.072600454104 -0.48080466248 0.72742592606 -0.78970657108 0.29055017284 
-1.0396087677 0.17647830696 0.90744969688 0.42941191576 -0.89360850412 -0.77213878237 0.30751765542 -0.067791722132 -0.54068514223 
0.0024252663636 -0.25526427054 -0.40683846777 -0.62207491779 0.77982302352 -0.53492893546 -0.54753436257 1.6609739369 -0.70320270522 
-0.83151493206 0.46975805705 0.37122817858 -1.2073916876 0.45272097156 0.1598690218 -1.4434156093 0.25889368621 0.4827940088 
-0.47416892142 0.028758151306 0.4932890085 -1.0176749059 -0.22300921556 0.82178031675 0.054645440126 -0.32754899266 -0.30449546342 
-0.13111858177 0.46486986504 1.0038644706 -0.29363413788 -0.085352531261 0.041710216614 0.98136695745 -1.0946120074 -0.68014291303 
1.1716283746 0.52501611427 -0.98522243522 0.23398980968 -0.45277109445 -0.10480280609 -0.17172968863 -0.086408057125 -0.36014547106 
0.54277208683 7.032559878e-05 0.3975347744 -0.95249321896 -1.0908358684 0.96724866559 -0.66872573365 -0.44921353851 0.044764268323 
-0.65112815435 0.23136302031 0.6826324624 0.46437316143 -0.37289425345 -0.74969818478 -0.46781636268 0.079871116291 -0.25655322678 
0.54106270934 0.95399512516 0.59980729511 0.10869188224 -0.12177020771 0.46260781628 -0.14440754098 -0.61277022092 0.46400257617 
0.65105231211 -0.49904038376 0.015069701476 -0.37667059936 0.20275192648 0.56214597145 0.014103755634 -1.2981867516 0.19337312236 