# vtk DataFile Version 3.0
# correlation data
ASCII
DATASET STRUCTURED_GRID
DIMENSIONS 30 27 1
POINTS 810 double
0.0 0.0 0.0 2.86 0.0 0.0 5.72 0.0 0.0 
8.58 0.0 0.0 11.44 0.0 0.0 14.3 0.0 0.0 
17.16 0.0 0.0 20.02 0.0 0.0 22.88 0.0 0.0 
25.74 0.0 0.0 28.6 0.0 0.0 31.46 0.0 0.0 
34.32 0.0 0.0 37.18 0.0 0.0 40.04 0.0 0.0 
42.9 0.0 0.0 45.76 0.0 0.0 48.62 0.0 0.0 
51.48 0.0 0.0 54.34 0.0 0.0 57.2 0.0 0.0 
60.06 0.0 0.0 62.92 0.0 0.0 65.78 0.0 0.0 
68.64 0.0 0.0 71.5 0.0 0.0 74.36 0.0 0.0 
77.22 0.0 0.0 80.08 0.0 0.0 82.94 0.0 0.0 
1.43 2.47676 0.0 4.29 2.47676 0.0 7.15 2.47676 0.0 
10.01 2.47676 0.0 12.87 2.47676 0.0 15.73 2.47676 0.0 
18.59 2.47676 0.0 21.45 2.47676 0.0 24.31 2.47676 0.0 
27.17 2.47676 0.0 30.03 2.47676 0.0 32.89 2.47676 0.0 
35.75 2.47676 0.0 38.61 2.47676 0.0 41.47 2.47676 0.0 
44.33 2.47676 0.0 47.19 2.47676 0.0 50.05 2.47676 0.0 
52.91 2.47676 0.0 55.77 2.47676 0.0 58.63 2.47676 0.0 
61.49 2.47676 0.0 64.35 2.47676 0.0 67.21 2.47676 0.0 
70.07 2.47676 0.0 72.93 2.47676 0.0 75.79 2.47676 0.0 
78.65 2.47676 0.0 81.51 2.47676 0.0 84.37 2.47676 0.0 
2.86 4.95352 0.0 5.72 4.95352 0.0 8.58 4.95352 0.0 
11.44 4.95352 0.0 14.3 4.95352 0.0 17.16 4.95352 0.0 
20.02 4.95352 0.0 22.88 4.95352 0.0 25.74 4.95352 0.0 
28.6 4.95352 0.0 31.46 4.95352 0.0 34.32 4.95352 0.0 
37.18 4.95352 0.0 40.04 4.95352 0.0 42.9 4.95352 0.0 
45.76 4.95352 0.0 48.62 4.95352 0.0 51.48 4.95352 0.0 
54.34 4.95352 0.0 57.2 4.95352 0.0 60.06 4.95352 0.0 
62.92 4.95352 0.0 65.78 4.95352 0.0 68.64 4.95352 0.0 
71.5 4.95352 0.0 74.36 4.95352 0.0 77.22 4.95352 0.0 
80.08 4.95352 0.0 82.94 4.95352 0.0 85.8 4.95352 0.0 
4.29 7.43028 0.0 7.15 7.43028 0.0 10.01 7.43028 0.0 
12.87 7.43028 0.0 15.73 7.43028 0.0 18.59 7.43028 0.0 
21.45 7.43028 0.0 24.31 7.43028 0.0 27.17 7.43028 0.0 
30.03 7.43028 0.0 32.89 7.43028 0.0 35.75 7.43028 0.0 
38.61 7.43028 0.0 41.47 7.43028 0.0 44.33 7.43028 0.0 
47.19 7.43028 0.0 50.05 7.43028 0.0 52.91 7.43028 0.0 
55.77 7.43028 0.0 58.63 7.43028 0.0 61.49 7.43028 0.0 
64.35 7.43028 0.0 67.21 7.43028 0.0 70.07 7.43028 0.0 
72.93 7.43028 0.0 75.79 7.43028 0.0 78.65 7.43028 0.0 
81.51 7.43028 0.0 84.37 7.43028 0.0 87.23 7.43028 0.0 
5.72 9.90704 0.0 8.58 9.90704 0.0 11.44 9.90704 0.0 
14.3 9.90704 0.0 17.16 9.90704 0.0 20.02 9.90704 0.0 
22.88 9.90704 0.0 25.74 9.90704 0.0 28.6 9.90704 0.0 
31.46 9.90704 0.0 34.32 9.90704 0.0 37.18 9.90704 0.0 
40.04 9.90704 0.0 42.9 9.90704 0.0 45.76 9.90704 0.0 
48.62 9.90704 0.0 51.48 9.90704 0.0 54.34 9.90704 0.0 
57.2 9.90704 0.0 60.06 9.90704 0.0 62.92 9.90704 0.0 
65.78 9.90704 0.0 68.64 9.90704 0.0 71.5 9.90704 0.0 
74.36 9.90704 0.0 77.22 9.90704 0.0 80.08 9.90704 0.0 
82.94 9.90704 0.0 85.8 9.90704 0.0 88.66 9.90704 0.0 
7.15 12.3838 0.0 10.01 12.3838 0.0 12.87 12.3838 0.0 
15.73 12.3838 0.0 18.59 12.3838 0.0 21.45 12.3838 0.0 
24.31 12.3838 0.0 27.17 12.3838 0.0 30.03 12.3838 0.0 
32.89 12.3838 0.0 35.75 12.3838 0.0 38.61 12.3838 0.0 
41.47 12.3838 0.0 44.33 12.3838 0.0 47.19 12.3838 0.0 
50.05 12.3838 0.0 52.91 12.3838 0.0 55.77 12.3838 0.0 
58.63 12.3838 0.0 61.49 12.3838 0.0 64.35 12.3838 0.0 
67.21 12.3838 0.0 70.07 12.3838 0.0 72.93 12.3838 0.0 
75.79 12.3838 0.0 78.65 12.3838 0.0 81.51 12.3838 0.0 
84.37 12.3838 0.0 87.23 12.3838 0.0 90.09 12.3838 0.0 
8.58 14.8606 0.0 11.44 14.8606 0.0 14.3 14.8606 0.0 
17.16 14.8606 0.0 20.02 14.8606 0.0 22.88 14.8606 0.0 
25.74 14.8606 0.0 28.6 14.8606 0.0 31.46 14.8606 0.0 
34.32 14.8606 0.0 37.18 14.8606 0.0 40.04 14.8606 0.0 
42.9 14.8606 0.0 45.76 14.8606 0.0 48.62 14.8606 0.0 
51.48 14.8606 0.0 54.34 14.8606 0.0 57.2 14.8606 0.0 
60.06 14.8606 0.0 62.92 14.8606 0.0 65.78 14.8606 0.0 
68.64 14.8606 0.0 71.5 14.8606 0.0 74.36 14.8606 0.0 
77.22 14.8606 0.0 80.08 14.8606 0.0 82.94 14.8606 0.0 
85.8 14.8606 0.0 88.66 14.8606 0.0 91.52 14.8606 0.0 
10.01 17.3373 0.0 12.87 17.3373 0.0 15.73 17.3373 0.0 
18.59 17.3373 0.0 21.45 17.3373 0.0 24.31 17.3373 0.0 
27.17 17.3373 0.0 30.03 17.3373 0.0 32.89 17.3373 0.0 
35.75 17.3373 0.0 38.61 17.3373 0.0 41.47 17.3373 0.0 
44.33 17.3373 0.0 47.19 17.3373 0.0 50.05 17.3373 0.0 
52.91 17.3373 0.0 55.77 17.3373 0.0 58.63 17.3373 0.0 
61.49 17.3373 0.0 64.35 17.3373 0.0 67.21 17.3373 0.0 
70.07 17.3373 0.0 72.93 17.3373 0.0 75.79 17.3373 0.0 
78.65 17.3373 0.0 81.51 17.3373 0.0 84.37 17.3373 0.0 
87.23 17.3373 0.0 90.09 17.3373 0.0 92.95 17.3373 0.0 
11.44 19.8141 0.0 14.3 19.8141 0.0 17.16 19.8141 0.0 
20.02 19.8141 0.0 22.88 19.8141 0.0 25.74 19.8141 0.0 
28.6 19.8141 0.0 31.46 19.8141 0.0 34.32 19.8141 0.0 
37.18 19.8141 0.0 40.04 19.8141 0.0 42.9 19.8141 0.0 
45.76 19.8141 0.0 48.62 19.8141 0.0 51.48 19.8141 0.0 
54.34 19.8141 0.0 57.2 19.8141 0.0 60.06 19.8141 0.0 
62.92 19.8141 0.0 65.78 19.8141 0.0 68.64 19.8141 0.0 
71.5 19.8141 0.0 74.36 19.8141 0.0 77.22 19.8141 0.0 
80.08 19.8141 0.0 82.94 19.8141 0.0 85.8 19.8141 0.0 
88.66 19.8141 0.0 91.52 19.8141 0.0 94.38 19.8141 0.0 
12.87 22.2908 0.0 15.73 22.2908 0.0 18.59 22.2908 0.0 
21.45 22.2908 0.0 24.31 22.2908 0.0 27.17 22.2908 0.0 
30.03 22.2908 0.0 32.89 22.2908 0.0 35.75 22.2908 0.0 
38.61 22.2908 0.0 41.47 22.2908 0.0 44.33 22.2908 0.0 
47.19 22.2908 0.0 50.05 22.2908 0.0 52.91 22.2908 0.0 
55.77 22.2908 0.0 58.63 22.2908 0.0 61.49 22.2908 0.0 
64.35 22.2908 0.0 67.21 22.2908 0.0 70.07 22.2908 0.0 
72.93 22.2908 0.0 75.79 22.2908 0.0 78.65 22.2908 0.0 
81.51 22.2908 0.0 84.37 22.2908 0.0 87.23 22.2908 0.0 
90.09 22.2908 0.0 92.95 22.2908 0.0 95.81 22.2908 0.0 
14.3 24.7676 0.0 17.16 24.7676 0.0 20.02 24.7676 0.0 
22.88 24.7676 0.0 25.74 24.7676 0.0 28.6 24.7676 0.0 
31.46 24.7676 0.0 34.32 24.7676 0.0 37.18 24.7676 0.0 
40.04 24.7676 0.0 42.9 24.7676 0.0 45.76 24.7676 0.0 
48.62 24.7676 0.0 51.48 24.7676 0.0 54.34 24.7676 0.0 
57.2 24.7676 0.0 60.06 24.7676 0.0 62.92 24.7676 0.0 
65.78 24.7676 0.0 68.64 24.7676 0.0 71.5 24.7676 0.0 
74.36 24.7676 0.0 77.22 24.7676 0.0 80.08 24.7676 0.0 
82.94 24.7676 0.0 85.8 24.7676 0.0 88.66 24.7676 0.0 
91.52 24.7676 0.0 94.38 24.7676 0.0 97.24 24.7676 0.0 
15.73 27.2444 0.0 18.59 27.2444 0.0 21.45 27.2444 0.0 
24.31 27.2444 0.0 27.17 27.2444 0.0 30.03 27.2444 0.0 
32.89 27.2444 0.0 35.75 27.2444 0.0 38.61 27.2444 0.0 
41.47 27.2444 0.0 44.33 27.2444 0.0 47.19 27.2444 0.0 
50.05 27.2444 0.0 52.91 27.2444 0.0 55.77 27.2444 0.0 
58.63 27.2444 0.0 61.49 27.2444 0.0 64.35 27.2444 0.0 
67.21 27.2444 0.0 70.07 27.2444 0.0 72.93 27.2444 0.0 
75.79 27.2444 0.0 78.65 27.2444 0.0 81.51 27.2444 0.0 
84.37 27.2444 0.0 87.23 27.2444 0.0 90.09 27.2444 0.0 
92.95 27.2444 0.0 95.81 27.2444 0.0 98.67 27.2444 0.0 
17.16 29.7211 0.0 20.02 29.7211 0.0 22.88 29.7211 0.0 
25.74 29.7211 0.0 28.6 29.7211 0.0 31.46 29.7211 0.0 
34.32 29.7211 0.0 37.18 29.7211 0.0 40.04 29.7211 0.0 
42.9 29.7211 0.0 45.76 29.7211 0.0 48.62 29.7211 0.0 
51.48 29.7211 0.0 54.34 29.7211 0.0 57.2 29.7211 0.0 
60.06 29.7211 0.0 62.92 29.7211 0.0 65.78 29.7211 0.0 
68.64 29.7211 0.0 71.5 29.7211 0.0 74.36 29.7211 0.0 
77.22 29.7211 0.0 80.08 29.7211 0.0 82.94 29.7211 0.0 
85.8 29.7211 0.0 88.66 29.7211 0.0 91.52 29.7211 0.0 
94.38 29.7211 0.0 97.24 29.7211 0.0 100.1 29.7211 0.0 
18.59 32.1979 0.0 21.45 32.1979 0.0 24.31 32.1979 0.0 
27.17 32.1979 0.0 30.03 32.1979 0.0 32.89 32.1979 0.0 
35.75 32.1979 0.0 38.61 32.1979 0.0 41.47 32.1979 0.0 
44.33 32.1979 0.0 47.19 32.1979 0.0 50.05 32.1979 0.0 
52.91 32.1979 0.0 55.77 32.1979 0.0 58.63 32.1979 0.0 
61.49 32.1979 0.0 64.35 32.1979 0.0 67.21 32.1979 0.0 
70.07 32.1979 0.0 72.93 32.1979 0.0 75.79 32.1979 0.0 
78.65 32.1979 0.0 81.51 32.1979 0.0 84.37 32.1979 0.0 
87.23 32.1979 0.0 90.09 32.1979 0.0 92.95 32.1979 0.0 
95.81 32.1979 0.0 98.67 32.1979 0.0 101.53 32.1979 0.0 
20.02 34.6746 0.0 22.88 34.6746 0.0 25.74 34.6746 0.0 
28.6 34.6746 0.0 31.46 34.6746 0.0 34.32 34.6746 0.0 
37.18 34.6746 0.0 40.04 34.6746 0.0 42.9 34.6746 0.0 
45.76 34.6746 0.0 48.62 34.6746 0.0 51.48 34.6746 0.0 
54.34 34.6746 0.0 57.2 34.6746 0.0 60.06 34.6746 0.0 
62.92 34.6746 0.0 65.78 34.6746 0.0 68.64 34.6746 0.0 
71.5 34.6746 0.0 74.36 34.6746 0.0 77.22 34.6746 0.0 
80.08 34.6746 0.0 82.94 34.6746 0.0 85.8 34.6746 0.0 
88.66 34.6746 0.0 91.52 34.6746 0.0 94.38 34.6746 0.0 
97.24 34.6746 0.0 100.1 34.6746 0.0 102.96 34.6746 0.0 
21.45 37.1514 0.0 24.31 37.1514 0.0 27.17 37.1514 0.0 
30.03 37.1514 0.0 32.89 37.1514 0.0 35.75 37.1514 0.0 
38.61 37.1514 0.0 41.47 37.1514 0.0 44.33 37.1514 0.0 
47.19 37.1514 0.0 50.05 37.1514 0.0 52.91 37.1514 0.0 
55.77 37.1514 0.0 58.63 37.1514 0.0 61.49 37.1514 0.0 
64.35 37.1514 0.0 67.21 37.1514 0.0 70.07 37.1514 0.0 
72.93 37.1514 0.0 75.79 37.1514 0.0 78.65 37.1514 0.0 
81.51 37.1514 0.0 84.37 37.1514 0.0 87.23 37.1514 0.0 
90.09 37.1514 0.0 92.95 37.1514 0.0 95.81 37.1514 0.0 
98.67 37.1514 0.0 101.53 37.1514 0.0 104.39 37.1514 0.0 
22.88 39.6282 0.0 25.74 39.6282 0.0 28.6 39.6282 0.0 
31.46 39.6282 0.0 34.32 39.6282 0.0 37.18 39.6282 0.0 
40.04 39.6282 0.0 42.9 39.6282 0.0 45.76 39.6282 0.0 
48.62 39.6282 0.0 51.48 39.6282 0.0 54.34 39.6282 0.0 
57.2 39.6282 0.0 60.06 39.6282 0.0 62.92 39.6282 0.0 
65.78 39.6282 0.0 68.64 39.6282 0.0 71.5 39.6282 0.0 
74.36 39.6282 0.0 77.22 39.6282 0.0 80.08 39.6282 0.0 
82.94 39.6282 0.0 85.8 39.6282 0.0 88.66 39.6282 0.0 
91.52 39.6282 0.0 94.38 39.6282 0.0 97.24 39.6282 0.0 
100.1 39.6282 0.0 102.96 39.6282 0.0 105.82 39.6282 0.0 
24.31 42.1049 0.0 27.17 42.1049 0.0 30.03 42.1049 0.0 
32.89 42.1049 0.0 35.75 42.1049 0.0 38.61 42.1049 0.0 
41.47 42.1049 0.0 44.33 42.1049 0.0 47.19 42.1049 0.0 
50.05 42.1049 0.0 52.91 42.1049 0.0 55.77 42.1049 0.0 
58.63 42.1049 0.0 61.49 42.1049 0.0 64.35 42.1049 0.0 
67.21 42.1049 0.0 70.07 42.1049 0.0 72.93 42.1049 0.0 
75.79 42.1049 0.0 78.65 42.1049 0.0 81.51 42.1049 0.0 
84.37 42.1049 0.0 87.23 42.1049 0.0 90.09 42.1049 0.0 
92.95 42.1049 0.0 95.81 42.1049 0.0 98.67 42.1049 0.0 
101.53 42.1049 0.0 104.39 42.1049 0.0 107.25 42.1049 0.0 
25.74 44.5817 0.0 28.6 44.5817 0.0 31.46 44.5817 0.0 
34.32 44.5817 0.0 37.18 44.5817 0.0 40.04 44.5817 0.0 
42.9 44.5817 0.0 45.76 44.5817 0.0 48.62 44.5817 0.0 
51.48 44.5817 0.0 54.34 44.5817 0.0 57.2 44.5817 0.0 
60.06 44.5817 0.0 62.92 44.5817 0.0 65.78 44.5817 0.0 
68.64 44.5817 0.0 71.5 44.5817 0.0 74.36 44.5817 0.0 
77.22 44.5817 0.0 80.08 44.5817 0.0 82.94 44.5817 0.0 
85.8 44.5817 0.0 88.66 44.5817 0.0 91.52 44.5817 0.0 
94.38 44.5817 0.0 97.24 44.5817 0.0 100.1 44.5817 0.0 
102.96 44.5817 0.0 105.82 44.5817 0.0 108.68 44.5817 0.0 
27.17 47.0584 0.0 30.03 47.0584 0.0 32.89 47.0584 0.0 
35.75 47.0584 0.0 38.61 47.0584 0.0 41.47 47.0584 0.0 
44.33 47.0584 0.0 47.19 47.0584 0.0 50.05 47.0584 0.0 
52.91 47.0584 0.0 55.77 47.0584 0.0 58.63 47.0584 0.0 
61.49 47.0584 0.0 64.35 47.0584 0.0 67.21 47.0584 0.0 
70.07 47.0584 0.0 72.93 47.0584 0.0 75.79 47.0584 0.0 
78.65 47.0584 0.0 81.51 47.0584 0.0 84.37 47.0584 0.0 
87.23 47.0584 0.0 90.09 47.0584 0.0 92.95 47.0584 0.0 
95.81 47.0584 0.0 98.67 47.0584 0.0 101.53 47.0584 0.0 
104.39 47.0584 0.0 107.25 47.0584 0.0 110.11 47.0584 0.0 
28.6 49.5352 0.0 31.46 49.5352 0.0 34.32 49.5352 0.0 
37.18 49.5352 0.0 40.04 49.5352 0.0 42.9 49.5352 0.0 
45.76 49.5352 0.0 48.62 49.5352 0.0 51.48 49.5352 0.0 
54.34 49.5352 0.0 57.2 49.5352 0.0 60.06 49.5352 0.0 
62.92 49.5352 0.0 65.78 49.5352 0.0 68.64 49.5352 0.0 
71.5 49.5352 0.0 74.36 49.5352 0.0 77.22 49.5352 0.0 
80.08 49.5352 0.0 82.94 49.5352 0.0 85.8 49.5352 0.0 
88.66 49.5352 0.0 91.52 49.5352 0.0 94.38 49.5352 0.0 
97.24 49.5352 0.0 100.1 49.5352 0.0 102.96 49.5352 0.0 
105.82 49.5352 0.0 108.68 49.5352 0.0 111.54 49.5352 0.0 
30.03 52.012 0.0 32.89 52.012 0.0 35.75 52.012 0.0 
38.61 52.012 0.0 41.47 52.012 0.0 44.33 52.012 0.0 
47.19 52.012 0.0 50.05 52.012 0.0 52.91 52.012 0.0 
55.77 52.012 0.0 58.63 52.012 0.0 61.49 52.012 0.0 
64.35 52.012 0.0 67.21 52.012 0.0 70.07 52.012 0.0 
72.93 52.012 0.0 75.79 52.012 0.0 78.65 52.012 0.0 
81.51 52.012 0.0 84.37 52.012 0.0 87.23 52.012 0.0 
90.09 52.012 0.0 92.95 52.012 0.0 95.81 52.012 0.0 
98.67 52.012 0.0 101.53 52.012 0.0 104.39 52.012 0.0 
107.25 52.012 0.0 110.11 52.012 0.0 112.97 52.012 0.0 
31.46 54.4887 0.0 34.32 54.4887 0.0 37.18 54.4887 0.0 
40.04 54.4887 0.0 42.9 54.4887 0.0 45.76 54.4887 0.0 
48.62 54.4887 0.0 51.48 54.4887 0.0 54.34 54.4887 0.0 
57.2 54.4887 0.0 60.06 54.4887 0.0 62.92 54.4887 0.0 
65.78 54.4887 0.0 68.64 54.4887 0.0 71.5 54.4887 0.0 
74.36 54.4887 0.0 77.22 54.4887 0.0 80.08 54.4887 0.0 
82.94 54.4887 0.0 85.8 54.4887 0.0 88.66 54.4887 0.0 
91.52 54.4887 0.0 94.38 54.4887 0.0 97.24 54.4887 0.0 
100.1 54.4887 0.0 102.96 54.4887 0.0 105.82 54.4887 0.0 
108.68 54.4887 0.0 111.54 54.4887 0.0 114.4 54.4887 0.0 
32.89 56.9655 0.0 35.75 56.9655 0.0 38.61 56.9655 0.0 
41.47 56.9655 0.0 44.33 56.9655 0.0 47.19 56.9655 0.0 
50.05 56.9655 0.0 52.91 56.9655 0.0 55.77 56.9655 0.0 
58.63 56.9655 0.0 61.49 56.9655 0.0 64.35 56.9655 0.0 
67.21 56.9655 0.0 70.07 56.9655 0.0 72.93 56.9655 0.0 
75.79 56.9655 0.0 78.65 56.9655 0.0 81.51 56.9655 0.0 
84.37 56.9655 0.0 87.23 56.9655 0.0 90.09 56.9655 0.0 
92.95 56.9655 0.0 95.81 56.9655 0.0 98.67 56.9655 0.0 
101.53 56.9655 0.0 104.39 56.9655 0.0 107.25 56.9655 0.0 
110.11 56.9655 0.0 112.97 56.9655 0.0 115.83 56.9655 0.0 
34.32 59.4422 0.0 37.18 59.4422 0.0 40.04 59.4422 0.0 
42.9 59.4422 0.0 45.76 59.4422 0.0 48.62 59.4422 0.0 
51.48 59.4422 0.0 54.34 59.4422 0.0 57.2 59.4422 0.0 
60.06 59.4422 0.0 62.92 59.4422 0.0 65.78 59.4422 0.0 
68.64 59.4422 0.0 71.5 59.4422 0.0 74.36 59.4422 0.0 
77.22 59.4422 0.0 80.08 59.4422 0.0 82.94 59.4422 0.0 
85.8 59.4422 0.0 88.66 59.4422 0.0 91.52 59.4422 0.0 
94.38 59.4422 0.0 97.24 59.4422 0.0 100.1 59.4422 0.0 
102.96 59.4422 0.0 105.82 59.4422 0.0 108.68 59.4422 0.0 
111.54 59.4422 0.0 114.4 59.4422 0.0 117.26 59.4422 0.0 
35.75 61.919 0.0 38.61 61.919 0.0 41.47 61.919 0.0 
44.33 61.919 0.0 47.19 61.919 0.0 50.05 61.919 0.0 
52.91 61.919 0.0 55.77 61.919 0.0 58.63 61.919 0.0 
61.49 61.919 0.0 64.35 61.919 0.0 67.21 61.919 0.0 
70.07 61.919 0.0 72.93 61.919 0.0 75.79 61.919 0.0 
78.65 61.919 0.0 81.51 61.919 0.0 84.37 61.919 0.0 
87.23 61.919 0.0 90.09 61.919 0.0 92.95 61.919 0.0 
95.81 61.919 0.0 98.67 61.919 0.0 101.53 61.919 0.0 
104.39 61.919 0.0 107.25 61.919 0.0 110.11 61.919 0.0 
112.97 61.919 0.0 115.83 61.919 0.0 118.69 61.919 0.0 
37.18 64.3958 0.0 40.04 64.3958 0.0 42.9 64.3958 0.0 
45.76 64.3958 0.0 48.62 64.3958 0.0 51.48 64.3958 0.0 
54.34 64.3958 0.0 57.2 64.3958 0.0 60.06 64.3958 0.0 
62.92 64.3958 0.0 65.78 64.3958 0.0 68.64 64.3958 0.0 
71.5 64.3958 0.0 74.36 64.3958 0.0 77.22 64.3958 0.0 
80.08 64.3958 0.0 82.94 64.3958 0.0 85.8 64.3958 0.0 
88.66 64.3958 0.0 91.52 64.3958 0.0 94.38 64.3958 0.0 
97.24 64.3958 0.0 100.1 64.3958 0.0 102.96 64.3958 0.0 
105.82 64.3958 0.0 108.68 64.3958 0.0 111.54 64.3958 0.0 
114.4 64.3958 0.0 117.26 64.3958 0.0 120.12 64.3958 0.0 

POINT_DATA 810
SCALARS correlation_coefficient double
LOOKUP_TABLE default
2149.68821744076
5973.68685959348
-2575.414296432641
-7631.197429075003
-303.26095695845237
1612.9663631208928
-5809.588192398092
-1075.5074499688822
4998.641210374603
-3451.7868618366506
1050.5799232818076
-2752.8426674116954
-3574.5332447152246
4253.985202036028
-13566.894568449654
7333.5009760430785
4334.250466694359
-11090.441309470702
7239.84053582995
-2769.060488511215
2368.504473633559
-1906.8066110009906
-130.01538894856043
1421.9579899724843
1394.117175739895
-3051.765211964908
2089.680555428041
-4328.397248007043
-855.5096363052874
4830.7686680840925
-121.73086761557214
-2243.902475977105
-4526.25596531297
223.7422250226219
3410.853958111765
-2818.2532138373344
215.1217735988764
-1777.2388198636218
-1749.2952539594735
-2955.0147796883525
2903.217235014083
-6505.537632614116
1753.8108467252646
-1203.5054147402168
1152.6129187534611
3681.913303836862
-14775.50935421231
11750.992912948606
1642.5206350461935
-2987.5886723220724
-299.15530043158185
4693.978454460641
-3557.9725299162087
552.0093249574261
-997.8807687169038
1393.1640403005006
-2737.611551671309
2798.514319025889
1496.487655304504
-552.8718508109368
948.2461104401257
3075.3099481577683
-2291.8421719104977
846.1258477444062
-941.9435757432844
-1492.7596688297551
-2254.794890689502
-699.178361520662
16.058809120038312
4448.6660464486085
-4104.838847807084
-302.6974428264455
3286.951578528322
-3266.7892681722615
-174.2575696845453
-7943.656485693599
6157.154207049452
6287.561702843916
-9149.722415964208
-325.10821764705736
3143.712245649792
-5965.6310092069325
-949.840427416519
2253.064402963743
1745.312327090072
-1691.3509418276078
1147.6004538340724
-3028.117474801687
399.64682139761095
-1565.935502075124
1754.1351099729716
-7148.375539081778
-75.97511877694672
2243.9896615502926
-4668.3801072147635
26.99397158592978
234.8643343873357
1261.3979699561153
-250.62483157800284
1947.27492073236
-1786.3134573853436
-973.8520173346174
1603.4902576307045
76.5607222055319
3207.9781421141206
-771.8257022074974
9256.719762255629
-8066.231705373641
-2635.102606365991
1334.2098800250874
-3292.653153983633
2873.8233956875465
4906.478352315534
-8012.358148131214
708.4054921572122
-339.25260589592887
-1319.4049792834312
910.7576571450155
925.216450334913
-3952.425013979269
-326.78964641134036
-1901.9643551168197
6075.91984889996
-2015.6809531713757
-5439.166888261542
865.4299765830996
-659.2435680988328
-2131.5565789262864
2164.0508259811886
1437.740163077737
-4218.095756072857
4853.482585114644
1561.7094128214974
230.35306913147258
1431.325712322549
115.55366183389093
-1042.2121299256007
487.50420979561505
3616.7254793345155
-746.1733012433942
380.05479128978976
-888.9573709641111
-3745.5115704001987
4910.614513200014
261.97535650078703
910.9551557575015
759.9188554246214
1048.2885548780032
1421.749414014209
-198.80378037612692
-5091.572686662738
6517.188000896782
-3984.9142403456963
-7246.958350237976
1947.9599730206976
2344.3899314562104
-3171.9046163474613
2723.857982241894
2504.914084346058
-8543.941016756131
4224.108212036671
4793.9424875163395
-4951.991151391056
1951.468041846917
-4754.318636041048
-409.1907379824354
1724.659099606525
339.37391769068563
-940.6630145594357
-3629.2719410148416
-3053.4799306474893
4823.593569909233
-2961.5674134976384
450.69432841411304
-1836.4182636084004
-3623.8868367343716
4335.794090713847
2393.369984152185
-2882.3126794911714
3189.7163417207307
1920.066997204852
-2022.3359968853622
-3291.666802357222
5916.786538289915
4165.368134612483
-6509.942410685402
3070.420855383546
2009.4826303598174
-6416.771722771807
2306.16412374
-575.3661064093321
-3401.1943906056586
-1570.2288794619938
-1450.338620850639
2892.2461320879147
-1433.063687476445
933.5478196462072
-2005.9075216960427
-7292.957652700714
-4387.768435720917
7244.862438492569
-5500.0398983055375
-2663.5033744304546
1515.8297663489375
-3692.8831997355555
5416.171117798442
353.43119083055393
-5471.42249392296
5276.698267182359
-4429.556947425738
1113.8762693377648
-1419.5742615441977
9838.601998040796
-4090.0115145481354
-7526.090133754204
1221.7147894465097
6399.171679395887
-5230.645435155477
-1278.444962663436
-770.0864556948653
-2968.5595467153053
-4991.003049308168
1976.274973476695
-1504.4205233881776
-3315.655485514403
2238.2367626052664
7008.098730863135
-5201.052437407157
339.04819795898857
6418.653197893106
-139.22358400946587
-2381.7315039831205
5489.2729335394315
-631.936541556153
2196.482184600257
-4000.430020448263
1255.0605671609094
1793.2712851233266
-2512.5804114784073
-4015.771073242081
-5465.096144422733
5107.61750532074
-8206.59086111476
-4773.889014478936
3619.4005358411437
6179.564685628636
-7683.659448480839
-704.5856102058906
1233.0291965776473
2493.223881750144
-6998.791840786753
6011.611772818082
-730.8391631079539
-1609.2992233831776
5079.174342345323
873.6288340176549
-4350.15889363463
-1254.6424008307754
8633.765848066505
-3209.52513667941
-6811.331950911904
1970.98732550728
5433.22060482248
-3912.0439979092316
-7346.243273302883
9112.02298923961
-1174.8533105448837
-4131.584618698239
895.7426943927633
2884.2961545518465
6096.609161975745
-3747.252897126821
-510.78615508976446
8428.117491088959
-795.1795443547835
-9950.20156003048
-99.82072715022372
3834.28441644051
-212.20682970142832
-5353.498767612034
3391.7214969654137
282.85405876275456
-3773.900405970008
9422.440569111868
-15280.89503976902
8110.889855405023
16135.731592953149
5776.475723369642
-1504.4402139250874
-3373.5054504759305
1068.2026149006363
5937.147588546202
-7862.383205941184
-3644.7598339230703
9919.256436113707
-3732.8011136510095
-7398.508606982298
7331.269963471452
-367.011826581163
-3080.5946981084594
-1249.1022892899425
31.43192654371405
98.97951150278847
-7858.439670756367
-2983.8364278161366
4069.8276818545414
3476.045013285204
-7073.840148358201
2225.2364983319485
-1646.1900246469168
-2634.3375300069974
-3501.8644406606854
12387.344557616976
-66428.97687143549
125266.64114719919
31435.64273676858
-6531.7375987459545
-10137.463044364295
4383.084207778767
-3940.254620473463
-34.62291787538171
-3968.670177338584
-3995.0610020533645
4270.2340904459215
-11364.297381591901
2858.452436976824
6334.153280661647
-4299.2251036222115
-654.8367521317756
1637.8027553040704
2078.8882452339903
-3098.712062618732
-5109.177445259314
1602.1184582759136
4621.097929194412
-3982.6049982947056
-1074.1330282329998
5331.035254730087
2618.4866045310278
-3329.111522928876
-3615.039576008729
15541.532025255632
-100886.3112122479
220923.26367928114
-175688.29907690303
-118672.97839726879
-6102.993270276549
-4449.349310619739
11928.207941023344
-3614.1398591600714
3993.7858315994854
-6115.7185072858865
8937.077040373308
-12328.486862651376
6630.0653813700255
4140.325126765495
-10042.663846787887
-1904.185866367832
3249.1474397203965
-2132.990594372735
-2864.842501559622
-2693.1815965746587
4176.0094016544745
1081.2193408961882
-5168.8438717018535
1609.1664968930438
7372.550707670708
-1213.4648381183138
1943.0728625078175
-960.4567315537041
7490.518960261666
-61822.144644942375
222606.36269201725
-305966.569726631
-266525.0831586339
529746.0203858145
-115435.52399426656
23704.168500676747
6821.022207968038
4572.966723810636
-7217.6567681498655
5755.333579706394
-4279.023844476818
999.255684671165
4364.087907694888
-7137.731216526342
1015.4931836304495
2478.9558978957866
499.97786399733803
1316.9368867707108
-744.8005450570331
3607.0797812608466
-1779.817691651703
2416.066760432362
-2612.641143220857
6263.814856857796
-5827.821401729232
-929.3273757355254
1541.774226912278
-2315.3642473170653
-9734.723095988653
128093.5880993679
-176979.6303271954
-267887.8224883664
1366372.1081575297
-267887.8224883664
-176979.6303271954
128093.5880993679
-9734.723095988653
-2315.3642473170653
1541.774226912278
-929.3273757355254
-5827.821401729232
6263.814856857796
-2612.641143220857
2416.066760432362
-1779.817691651703
3607.0797812608466
-744.8005450570331
-508.742647348126
499.97786399733803
2478.9558978957866
1015.4931836304495
-7137.731216526342
4364.087907694888
999.255684671165
-4279.023844476818
5755.333579706394
-7217.6567681498655
4572.966723810636
6821.022207968038
23704.168500676747
-115435.52399426656
529746.0203858145
-266525.0831586339
-305966.569726631
222606.36269201725
-61822.144644942375
7490.518960261666
-960.4567315537041
1943.0728625078175
-1213.4648381183138
7372.550707670708
1609.1664968930438
-5168.8438717018535
1081.2193408961882
4176.0094016544745
-2693.1815965746587
-2864.842501559622
-121.4182151635674
3249.1474397203965
-1904.185866367832
-10042.663846787887
4140.325126765495
6630.0653813700255
-12328.486862651376
8937.077040373308
-6115.7185072858865
3993.7858315994854
-3614.1398591600714
11928.207941023344
-4449.349310619739
-6102.993270276549
-118672.97839726879
-175688.29907690303
220923.26367928114
-100886.3112122479
15541.532025255632
-3615.039576008729
-3329.111522928876
2618.4866045310278
5331.035254730087
-1074.1330282329998
-3982.6049982947056
4621.097929194412
1602.1184582759136
-5109.177445259314
-3098.712062618732
2078.8882452339903
-3184.1354802660917
-654.8367521317756
-4299.2251036222115
6334.153280661647
2858.452436976824
-11364.297381591901
4270.2340904459215
-3995.0610020533645
-3968.670177338584
-34.62291787538171
-3940.254620473463
4383.084207778767
-10137.463044364295
-6531.7375987459545
31435.64273676858
125266.64114719919
-66428.97687143549
12387.344557616976
-3501.8644406606854
-2634.3375300069974
-1646.1900246469168
2225.2364983319485
-7073.840148358201
3476.045013285204
4069.8276818545414
-2983.8364278161366
-7858.439670756367
98.97951150278847
31.43192654371405
-1249.1022892899425
5354.877230543628
-367.011826581163
7331.269963471452
-7398.508606982298
-3732.8011136510095
9919.256436113707
-3644.7598339230703
-7862.383205941184
5937.147588546202
1068.2026149006363
-3373.5054504759305
-1504.4402139250874
5776.475723369642
16135.731592953149
8110.889855405023
-15280.89503976902
9422.440569111868
-3773.900405970008
282.85405876275456
3391.7214969654137
-5353.498767612034
-212.20682970142832
3834.28441644051
-99.82072715022372
-9950.20156003048
-795.1795443547835
8428.117491088959
-510.78615508976446
-3747.252897126821
6096.609161975745
-6809.134248410799
895.7426943927633
-4131.584618698239
-1174.8533105448837
9112.02298923961
-7346.243273302883
-3912.0439979092316
5433.22060482248
1970.98732550728
-6811.331950911904
-3209.52513667941
8633.765848066505
-1254.6424008307754
-4350.15889363463
873.6288340176549
5079.174342345323
-1609.2992233831776
-730.8391631079539
6011.611772818082
-6998.791840786753
2493.223881750144
1233.0291965776473
-704.5856102058906
-7683.659448480839
6179.564685628636
3619.4005358411437
-4773.889014478936
-8206.59086111476
5107.61750532074
-5465.096144422733
-3116.533325441786
-2512.5804114784073
1793.2712851233266
1255.0605671609094
-4000.430020448263
2196.482184600257
-631.936541556153
5489.2729335394315
-2381.7315039831205
-139.22358400946587
6418.653197893106
339.04819795898857
-5201.052437407157
7008.098730863135
2238.2367626052664
-3315.655485514403
-1504.4205233881776
1976.274973476695
-4991.003049308168
-2968.5595467153053
-770.0864556948653
-1278.444962663436
-5230.645435155477
6399.171679395887
1221.7147894465097
-7526.090133754204
-4090.0115145481354
9838.601998040796
-1419.5742615441977
1113.8762693377648
3077.3913593982456
5276.698267182359
-5471.42249392296
353.43119083055393
5416.171117798442
-3692.8831997355555
1515.8297663489375
-2663.5033744304546
-5500.0398983055375
7244.862438492569
-4387.768435720917
-7292.957652700714
-2005.9075216960427
933.5478196462072
-1433.063687476445
2892.2461320879147
-1450.338620850639
-1570.2288794619938
-3401.1943906056586
-575.3661064093321
2306.16412374
-6416.771722771807
2009.4826303598174
3070.420855383546
-6509.942410685402
4165.368134612483
5916.786538289915
-3291.666802357222
-2022.3359968853622
1920.066997204852
-6467.362245503402
-2882.3126794911714
2393.369984152185
4335.794090713847
-3623.8868367343716
-1836.4182636084004
450.69432841411304
-2961.5674134976384
4823.593569909233
-3053.4799306474893
-3629.2719410148416
-940.6630145594357
339.37391769068563
1724.659099606525
-409.1907379824354
-4754.318636041048
1951.468041846917
-4951.991151391056
4793.9424875163395
4224.108212036671
-8543.941016756131
2504.914084346058
2723.857982241894
-3171.9046163474613
2344.3899314562104
1947.9599730206976
-7246.958350237976
-3984.9142403456963
6517.188000896782
-5091.572686662738
4863.264217895855
1421.749414014209
1048.2885548780032
759.9188554246214
910.9551557575015
261.97535650078703
4910.614513200014
-3745.5115704001987
-888.9573709641111
380.05479128978976
-746.1733012433942
3616.7254793345155
487.50420979561505
-1042.2121299256007
115.55366183389093
1431.325712322549
230.35306913147258
1561.7094128214974
4853.482585114644
-4218.095756072857
1437.740163077737
2164.0508259811886
-2131.5565789262864
-659.2435680988328
865.4299765830996
-5439.166888261542
-2015.6809531713757
6075.91984889996
-1901.9643551168197
-326.78964641134036
-2662.278032866591
925.216450334913
910.7576571450155
-1319.4049792834312
-339.25260589592887
708.4054921572122
-8012.358148131214
4906.478352315534
2873.8233956875465
-3292.653153983633
1334.2098800250874
-2635.102606365991
-8066.231705373641
9256.719762255629
-771.8257022074974
3207.9781421141206
76.5607222055319
1603.4902576307045
-973.8520173346174
-1786.3134573853436
1947.27492073236
-250.62483157800284
1261.3979699561153
234.8643343873357
26.99397158592978
-4668.3801072147635
2243.9896615502926
-75.97511877694672
-7148.375539081778
1754.1351099729716
3461.469209393061
399.64682139761095
-3028.117474801687
1147.6004538340724
-1691.3509418276078
1745.312327090072
2253.064402963743
-949.840427416519
-5965.6310092069325
3143.712245649792
-325.10821764705736
-9149.722415964208
6287.561702843916
6157.154207049452
-7943.656485693599
-174.2575696845453
-3266.7892681722615
3286.951578528322
-302.6974428264455
-4104.838847807084
4448.6660464486085
16.058809120038312
-699.178361520662
-2254.794890689502
-1492.7596688297551
-941.9435757432844
846.1258477444062
-2291.8421719104977
3075.3099481577683
948.2461104401257
-7479.852559546827
1496.487655304504
2798.514319025889
-2737.611551671309
1393.1640403005006
-997.8807687169038
552.0093249574261
-3557.9725299162087
4693.978454460641
-299.15530043158185
-2987.5886723220724
1642.5206350461935
11750.992912948606
-14775.50935421231
3681.913303836862
1152.6129187534611
-1203.5054147402168
1753.8108467252646
-6505.537632614116
2903.217235014083
-2955.0147796883525
-1749.2952539594735
-1777.2388198636218
215.1217735988764
-2818.2532138373344
3410.853958111765
223.7422250226219
-4526.25596531297
-2243.902475977105
-121.73086761557214
-1501.372288644896
-855.5096363052874
-4328.397248007043
2089.680555428041
-3051.765211964908
1394.117175739895
1421.9579899724843
-130.01538894856043
-1906.8066110009906
2368.504473633559
-2769.060488511215
7239.84053582995
-11090.441309470702
4334.250466694359
7333.5009760430785
-13566.894568449654
4253.985202036028
-3574.5332447152246
-2752.8426674116954
1050.5799232818076
-3451.7868618366506
4998.641210374603
-1075.5074499688822
-5809.588192398092