# vtk DataFile Version 3.0
# correlation data
ASCII
DATASET STRUCTURED_GRID
DIMENSIONS 30 27 1
POINTS 810 double
0.0 0.0 0.0 2.86 0.0 0.0 5.72 0.0 0.0 
8.58 0.0 0.0 11.44 0.0 0.0 14.3 0.0 0.0 
17.16 0.0 0.0 20.02 0.0 0.0 22.88 0.0 0.0 
25.74 0.0 0.0 28.6 0.0 0.0 31.46 0.0 0.0 
34.32 0.0 0.0 37.18 0.0 0.0 40.04 0.0 0.0 
42.9 0.0 0.0 45.76 0.0 0.0 48.62 0.0 0.0 
51.48 0.0 0.0 54.34 0.0 0.0 57.2 0.0 0.0 
60.06 0.0 0.0 62.92 0.0 0.0 65.78 0.0 0.0 
68.64 0.0 0.0 71.5 0.0 0.0 74.36 0.0 0.0 
77.22 0.0 0.0 80.08 0.0 0.0 82.94 0.0 0.0 
1.43 2.47676 0.0 4.29 2.47676 0.0 7.15 2.47676 0.0 
10.01 2.47676 0.0 12.87 2.47676 0.0 15.73 2.47676 0.0 
18.59 2.47676 0.0 21.45 2.47676 0.0 24.31 2.47676 0.0 
27.17 2.47676 0.0 30.03 2.47676 0.0 32.89 2.47676 0.0 
35.75 2.47676 0.0 38.61 2.47676 0.0 41.47 2.47676 0.0 
44.33 2.47676 0.0 47.19 2.47676 0.0 50.05 2.47676 0.0 
52.91 2.47676 0.0 55.77 2.47676 0.0 58.63 2.47676 0.0 
61.49 2.47676 0.0 64.35 2.47676 0.0 67.21 2.47676 0.0 
70.07 2.47676 0.0 72.93 2.47676 0.0 75.79 2.47676 0.0 
78.65 2.47676 0.0 81.51 2.47676 0.0 84.37 2.47676 0.0 
2.86 4.95352 0.0 5.72 4.95352 0.0 8.58 4.95352 0.0 
11.44 4.95352 0.0 14.3 4.95352 0.0 17.16 4.95352 0.0 
20.02 4.95352 0.0 22.88 4.95352 0.0 25.74 4.95352 0.0 
28.6 4.95352 0.0 31.46 4.95352 0.0 34.32 4.95352 0.0 
37.18 4.95352 0.0 40.04 4.95352 0.0 42.9 4.95352 0.0 
45.76 4.95352 0.0 48.62 4.95352 0.0 51.48 4.95352 0.0 
54.34 4.95352 0.0 57.2 4.95352 0.0 60.06 4.95352 0.0 
62.92 4.95352 0.0 65.78 4.95352 0.0 68.64 4.95352 0.0 
71.5 4.95352 0.0 74.36 4.95352 0.0 77.22 4.95352 0.0 
80.08 4.95352 0.0 82.94 4.95352 0.0 85.8 4.95352 0.0 
4.29 7.43028 0.0 7.15 7.43028 0.0 10.01 7.43028 0.0 
12.87 7.43028 0.0 15.73 7.43028 0.0 18.59 7.43028 0.0 
21.45 7.43028 0.0 24.31 7.43028 0.0 27.17 7.43028 0.0 
30.03 7.43028 0.0 32.89 7.43028 0.0 35.75 7.43028 0.0 
38.61 7.43028 0.0 41.47 7.43028 0.0 44.33 7.43028 0.0 
47.19 7.43028 0.0 50.05 7.43028 0.0 52.91 7.43028 0.0 
55.77 7.43028 0.0 58.63 7.43028 0.0 61.49 7.43028 0.0 
64.35 7.43028 0.0 67.21 7.43028 0.0 70.07 7.43028 0.0 
72.93 7.43028 0.0 75.79 7.43028 0.0 78.65 7.43028 0.0 
81.51 7.43028 0.0 84.37 7.43028 0.0 87.23 7.43028 0.0 
5.72 9.90704 0.0 8.58 9.90704 0.0 11.44 9.90704 0.0 
14.3 9.90704 0.0 17.16 9.90704 0.0 20.02 9.90704 0.0 
22.88 9.90704 0.0 25.74 9.90704 0.0 28.6 9.90704 0.0 
31.46 9.90704 0.0 34.32 9.90704 0.0 37.18 9.90704 0.0 
40.04 9.90704 0.0 42.9 9.90704 0.0 45.76 9.90704 0.0 
48.62 9.90704 0.0 51.48 9.90704 0.0 54.34 9.90704 0.0 
57.2 9.90704 0.0 60.06 9.90704 0.0 62.92 9.90704 0.0 
65.78 9.90704 0.0 68.64 9.90704 0.0 71.5 9.90704 0.0 
74.36 9.90704 0.0 77.22 9.90704 0.0 80.08 9.90704 0.0 
82.94 9.90704 0.0 85.8 9.90704 0.0 88.66 9.90704 0.0 
7.15 12.3838 0.0 10.01 12.3838 0.0 12.87 12.3838 0.0 
15.73 12.3838 0.0 18.59 12.3838 0.0 21.45 12.3838 0.0 
24.31 12.3838 0.0 27.17 12.3838 0.0 30.03 12.3838 0.0 
32.89 12.3838 0.0 35.75 12.3838 0.0 38.61 12.3838 0.0 
41.47 12.3838 0.0 44.33 12.3838 0.0 47.19 12.3838 0.0 
50.05 12.3838 0.0 52.91 12.3838 0.0 55.77 12.3838 0.0 
58.63 12.3838 0.0 61.49 12.3838 0.0 64.35 12.3838 0.0 
67.21 12.3838 0.0 70.07 12.3838 0.0 72.93 12.3838 0.0 
75.79 12.3838 0.0 78.65 12.3838 0.0 81.51 12.3838 0.0 
84.37 12.3838 0.0 87.23 12.3838 0.0 90.09 12.3838 0.0 
8.58 14.8606 0.0 11.44 14.8606 0.0 14.3 14.8606 0.0 
17.16 14.8606 0.0 20.02 14.8606 0.0 22.88 14.8606 0.0 
25.74 14.8606 0.0 28.6 14.8606 0.0 31.46 14.8606 0.0 
34.32 14.8606 0.0 37.18 14.8606 0.0 40.04 14.8606 0.0 
42.9 14.8606 0.0 45.76 14.8606 0.0 48.62 14.8606 0.0 
51.48 14.8606 0.0 54.34 14.8606 0.0 57.2 14.8606 0.0 
60.06 14.8606 0.0 62.92 14.8606 0.0 65.78 14.8606 0.0 
68.64 14.8606 0.0 71.5 14.8606 0.0 74.36 14.8606 0.0 
77.22 14.8606 0.0 80.08 14.8606 0.0 82.94 14.8606 0.0 
85.8 14.8606 0.0 88.66 14.8606 0.0 91.52 14.8606 0.0 
10.01 17.3373 0.0 12.87 17.3373 0.0 15.73 17.3373 0.0 
18.59 17.3373 0.0 21.45 17.3373 0.0 24.31 17.3373 0.0 
27.17 17.3373 0.0 30.03 17.3373 0.0 32.89 17.3373 0.0 
35.75 17.3373 0.0 38.61 17.3373 0.0 41.47 17.3373 0.0 
44.33 17.3373 0.0 47.19 17.3373 0.0 50.05 17.3373 0.0 
52.91 17.3373 0.0 55.77 17.3373 0.0 58.63 17.3373 0.0 
61.49 17.3373 0.0 64.35 17.3373 0.0 67.21 17.3373 0.0 
70.07 17.3373 0.0 72.93 17.3373 0.0 75.79 17.3373 0.0 
78.65 17.3373 0.0 81.51 17.3373 0.0 84.37 17.3373 0.0 
87.23 17.3373 0.0 90.09 17.3373 0.0 92.95 17.3373 0.0 
11.44 19.8141 0.0 14.3 19.8141 0.0 17.16 19.8141 0.0 
20.02 19.8141 0.0 22.88 19.8141 0.0 25.74 19.8141 0.0 
28.6 19.8141 0.0 31.46 19.8141 0.0 34.32 19.8141 0.0 
37.18 19.8141 0.0 40.04 19.8141 0.0 42.9 19.8141 0.0 
45.76 19.8141 0.0 48.62 19.8141 0.0 51.48 19.8141 0.0 
54.34 19.8141 0.0 57.2 19.8141 0.0 60.06 19.8141 0.0 
62.92 19.8141 0.0 65.78 19.8141 0.0 68.64 19.8141 0.0 
71.5 19.8141 0.0 74.36 19.8141 0.0 77.22 19.8141 0.0 
80.08 19.8141 0.0 82.94 19.8141 0.0 85.8 19.8141 0.0 
88.66 19.8141 0.0 91.52 19.8141 0.0 94.38 19.8141 0.0 
12.87 22.2908 0.0 15.73 22.2908 0.0 18.59 22.2908 0.0 
21.45 22.2908 0.0 24.31 22.2908 0.0 27.17 22.2908 0.0 
30.03 22.2908 0.0 32.89 22.2908 0.0 35.75 22.2908 0.0 
38.61 22.2908 0.0 41.47 22.2908 0.0 44.33 22.2908 0.0 
47.19 22.2908 0.0 50.05 22.2908 0.0 52.91 22.2908 0.0 
55.77 22.2908 0.0 58.63 22.2908 0.0 61.49 22.2908 0.0 
64.35 22.2908 0.0 67.21 22.2908 0.0 70.07 22.2908 0.0 
72.93 22.2908 0.0 75.79 22.2908 0.0 78.65 22.2908 0.0 
81.51 22.2908 0.0 84.37 22.2908 0.0 87.23 22.2908 0.0 
90.09 22.2908 0.0 92.95 22.2908 0.0 95.81 22.2908 0.0 
14.3 24.7676 0.0 17.16 24.7676 0.0 20.02 24.7676 0.0 
22.88 24.7676 0.0 25.74 24.7676 0.0 28.6 24.7676 0.0 
31.46 24.7676 0.0 34.32 24.7676 0.0 37.18 24.7676 0.0 
40.04 24.7676 0.0 42.9 24.7676 0.0 45.76 24.7676 0.0 
48.62 24.7676 0.0 51.48 24.7676 0.0 54.34 24.7676 0.0 
57.2 24.7676 0.0 60.06 24.7676 0.0 62.92 24.7676 0.0 
65.78 24.7676 0.0 68.64 24.7676 0.0 71.5 24.7676 0.0 
74.36 24.7676 0.0 77.22 24.7676 0.0 80.08 24.7676 0.0 
82.94 24.7676 0.0 85.8 24.7676 0.0 88.66 24.7676 0.0 
91.52 24.7676 0.0 94.38 24.7676 0.0 97.24 24.7676 0.0 
15.73 27.2444 0.0 18.59 27.2444 0.0 21.45 27.2444 0.0 
24.31 27.2444 0.0 27.17 27.2444 0.0 30.03 27.2444 0.0 
32.89 27.2444 0.0 35.75 27.2444 0.0 38.61 27.2444 0.0 
41.47 27.2444 0.0 44.33 27.2444 0.0 47.19 27.2444 0.0 
50.05 27.2444 0.0 52.91 27.2444 0.0 55.77 27.2444 0.0 
58.63 27.2444 0.0 61.49 27.2444 0.0 64.35 27.2444 0.0 
67.21 27.2444 0.0 70.07 27.2444 0.0 72.93 27.2444 0.0 
75.79 27.2444 0.0 78.65 27.2444 0.0 81.51 27.2444 0.0 
84.37 27.2444 0.0 87.23 27.2444 0.0 90.09 27.2444 0.0 
92.95 27.2444 0.0 95.81 27.2444 0.0 98.67 27.2444 0.0 
17.16 29.7211 0.0 20.02 29.7211 0.0 22.88 29.7211 0.0 
25.74 29.7211 0.0 28.6 29.7211 0.0 31.46 29.7211 0.0 
34.32 29.7211 0.0 37.18 29.7211 0.0 40.04 29.7211 0.0 
42.9 29.7211 0.0 45.76 29.7211 0.0 48.62 29.7211 0.0 
51.48 29.7211 0.0 54.34 29.7211 0.0 57.2 29.7211 0.0 
60.06 29.7211 0.0 62.92 29.7211 0.0 65.78 29.7211 0.0 
68.64 29.7211 0.0 71.5 29.7211 0.0 74.36 29.7211 0.0 
77.22 29.7211 0.0 80.08 29.7211 0.0 82.94 29.7211 0.0 
85.8 29.7211 0.0 88.66 29.7211 0.0 91.52 29.7211 0.0 
94.38 29.7211 0.0 97.24 29.7211 0.0 100.1 29.7211 0.0 
18.59 32.1979 0.0 21.45 32.1979 0.0 24.31 32.1979 0.0 
27.17 32.1979 0.0 30.03 32.1979 0.0 32.89 32.1979 0.0 
35.75 32.1979 0.0 38.61 32.1979 0.0 41.47 32.1979 0.0 
44.33 32.1979 0.0 47.19 32.1979 0.0 50.05 32.1979 0.0 
52.91 32.1979 0.0 55.77 32.1979 0.0 58.63 32.1979 0.0 
61.49 32.1979 0.0 64.35 32.1979 0.0 67.21 32.1979 0.0 
70.07 32.1979 0.0 72.93 32.1979 0.0 75.79 32.1979 0.0 
78.65 32.1979 0.0 81.51 32.1979 0.0 84.37 32.1979 0.0 
87.23 32.1979 0.0 90.09 32.1979 0.0 92.95 32.1979 0.0 
95.81 32.1979 0.0 98.67 32.1979 0.0 101.53 32.1979 0.0 
20.02 34.6746 0.0 22.88 34.6746 0.0 25.74 34.6746 0.0 
28.6 34.6746 0.0 31.46 34.6746 0.0 34.32 34.6746 0.0 
37.18 34.6746 0.0 40.04 34.6746 0.0 42.9 34.6746 0.0 
45.76 34.6746 0.0 48.62 34.6746 0.0 51.48 34.6746 0.0 
54.34 34.6746 0.0 57.2 34.6746 0.0 60.06 34.6746 0.0 
62.92 34.6746 0.0 65.78 34.6746 0.0 68.64 34.6746 0.0 
71.5 34.6746 0.0 74.36 34.6746 0.0 77.22 34.6746 0.0 
80.08 34.6746 0.0 82.94 34.6746 0.0 85.8 34.6746 0.0 
88.66 34.6746 0.0 91.52 34.6746 0.0 94.38 34.6746 0.0 
97.24 34.6746 0.0 100.1 34.6746 0.0 102.96 34.6746 0.0 
21.45 37.1514 0.0 24.31 37.1514 0.0 27.17 37.1514 0.0 
30.03 37.1514 0.0 32.89 37.1514 0.0 35.75 37.1514 0.0 
38.61 37.1514 0.0 41.47 37.1514 0.0 44.33 37.1514 0.0 
47.19 37.1514 0.0 50.05 37.1514 0.0 52.91 37.1514 0.0 
55.77 37.1514 0.0 58.63 37.1514 0.0 61.49 37.1514 0.0 
64.35 37.1514 0.0 67.21 37.1514 0.0 70.07 37.1514 0.0 
72.93 37.1514 0.0 75.79 37.1514 0.0 78.65 37.1514 0.0 
81.51 37.1514 0.0 84.37 37.1514 0.0 87.23 37.1514 0.0 
90.09 37.1514 0.0 92.95 37.1514 0.0 95.81 37.1514 0.0 
98.67 37.1514 0.0 101.53 37.1514 0.0 104.39 37.1514 0.0 
22.88 39.6282 0.0 25.74 39.6282 0.0 28.6 39.6282 0.0 
31.46 39.6282 0.0 34.32 39.6282 0.0 37.18 39.6282 0.0 
40.04 39.6282 0.0 42.9 39.6282 0.0 45.76 39.6282 0.0 
48.62 39.6282 0.0 51.48 39.6282 0.0 54.34 39.6282 0.0 
57.2 39.6282 0.0 60.06 39.6282 0.0 62.92 39.6282 0.0 
65.78 39.6282 0.0 68.64 39.6282 0.0 71.5 39.6282 0.0 
74.36 39.6282 0.0 77.22 39.6282 0.0 80.08 39.6282 0.0 
82.94 39.6282 0.0 85.8 39.6282 0.0 88.66 39.6282 0.0 
91.52 39.6282 0.0 94.38 39.6282 0.0 97.24 39.6282 0.0 
100.1 39.6282 0.0 102.96 39.6282 0.0 105.82 39.6282 0.0 
24.31 42.1049 0.0 27.17 42.1049 0.0 30.03 42.1049 0.0 
32.89 42.1049 0.0 35.75 42.1049 0.0 38.61 42.1049 0.0 
41.47 42.1049 0.0 44.33 42.1049 0.0 47.19 42.1049 0.0 
50.05 42.1049 0.0 52.91 42.1049 0.0 55.77 42.1049 0.0 
58.63 42.1049 0.0 61.49 42.1049 0.0 64.35 42.1049 0.0 
67.21 42.1049 0.0 70.07 42.1049 0.0 72.93 42.1049 0.0 
75.79 42.1049 0.0 78.65 42.1049 0.0 81.51 42.1049 0.0 
84.37 42.1049 0.0 87.23 42.1049 0.0 90.09 42.1049 0.0 
92.95 42.1049 0.0 95.81 42.1049 0.0 98.67 42.1049 0.0 
101.53 42.1049 0.0 104.39 42.1049 0.0 107.25 42.1049 0.0 
25.74 44.5817 0.0 28.6 44.5817 0.0 31.46 44.5817 0.0 
34.32 44.5817 0.0 37.18 44.5817 0.0 40.04 44.5817 0.0 
42.9 44.5817 0.0 45.76 44.5817 0.0 48.62 44.5817 0.0 
51.48 44.5817 0.0 54.34 44.5817 0.0 57.2 44.5817 0.0 
60.06 44.5817 0.0 62.92 44.5817 0.0 65.78 44.5817 0.0 
68.64 44.5817 0.0 71.5 44.5817 0.0 74.36 44.5817 0.0 
77.22 44.5817 0.0 80.08 44.5817 0.0 82.94 44.5817 0.0 
85.8 44.5817 0.0 88.66 44.5817 0.0 91.52 44.5817 0.0 
94.38 44.5817 0.0 97.24 44.5817 0.0 100.1 44.5817 0.0 
102.96 44.5817 0.0 105.82 44.5817 0.0 108.68 44.5817 0.0 
27.17 47.0584 0.0 30.03 47.0584 0.0 32.89 47.0584 0.0 
35.75 47.0584 0.0 38.61 47.0584 0.0 41.47 47.0584 0.0 
44.33 47.0584 0.0 47.19 47.0584 0.0 50.05 47.0584 0.0 
52.91 47.0584 0.0 55.77 47.0584 0.0 58.63 47.0584 0.0 
61.49 47.0584 0.0 64.35 47.0584 0.0 67.21 47.0584 0.0 
70.07 47.0584 0.0 72.93 47.0584 0.0 75.79 47.0584 0.0 
78.65 47.0584 0.0 81.51 47.0584 0.0 84.37 47.0584 0.0 
87.23 47.0584 0.0 90.09 47.0584 0.0 92.95 47.0584 0.0 
95.81 47.0584 0.0 98.67 47.0584 0.0 101.53 47.0584 0.0 
104.39 47.0584 0.0 107.25 47.0584 0.0 110.11 47.0584 0.0 
28.6 49.5352 0.0 31.46 49.5352 0.0 34.32 49.5352 0.0 
37.18 49.5352 0.0 40.04 49.5352 0.0 42.9 49.5352 0.0 
45.76 49.5352 0.0 48.62 49.5352 0.0 51.48 49.5352 0.0 
54.34 49.5352 0.0 57.2 49.5352 0.0 60.06 49.5352 0.0 
62.92 49.5352 0.0 65.78 49.5352 0.0 68.64 49.5352 0.0 
71.5 49.5352 0.0 74.36 49.5352 0.0 77.22 49.5352 0.0 
80.08 49.5352 0.0 82.94 49.5352 0.0 85.8 49.5352 0.0 
88.66 49.5352 0.0 91.52 49.5352 0.0 94.38 49.5352 0.0 
97.24 49.5352 0.0 100.1 49.5352 0.0 102.96 49.5352 0.0 
105.82 49.5352 0.0 108.68 49.5352 0.0 111.54 49.5352 0.0 
30.03 52.012 0.0 32.89 52.012 0.0 35.75 52.012 0.0 
38.61 52.012 0.0 41.47 52.012 0.0 44.33 52.012 0.0 
47.19 52.012 0.0 50.05 52.012 0.0 52.91 52.012 0.0 
55.77 52.012 0.0 58.63 52.012 0.0 61.49 52.012 0.0 
64.35 52.012 0.0 67.21 52.012 0.0 70.07 52.012 0.0 
72.93 52.012 0.0 75.79 52.012 0.0 78.65 52.012 0.0 
81.51 52.012 0.0 84.37 52.012 0.0 87.23 52.012 0.0 
90.09 52.012 0.0 92.95 52.012 0.0 95.81 52.012 0.0 
98.67 52.012 0.0 101.53 52.012 0.0 104.39 52.012 0.0 
107.25 52.012 0.0 110.11 52.012 0.0 112.97 52.012 0.0 
31.46 54.4887 0.0 34.32 54.4887 0.0 37.18 54.4887 0.0 
40.04 54.4887 0.0 42.9 54.4887 0.0 45.76 54.4887 0.0 
48.62 54.4887 0.0 51.48 54.4887 0.0 54.34 54.4887 0.0 
57.2 54.4887 0.0 60.06 54.4887 0.0 62.92 54.4887 0.0 
65.78 54.4887 0.0 68.64 54.4887 0.0 71.5 54.4887 0.0 
74.36 54.4887 0.0 77.22 54.4887 0.0 80.08 54.4887 0.0 
82.94 54.4887 0.0 85.8 54.4887 0.0 88.66 54.4887 0.0 
91.52 54.4887 0.0 94.38 54.4887 0.0 97.24 54.4887 0.0 
100.1 54.4887 0.0 102.96 54.4887 0.0 105.82 54.4887 0.0 
108.68 54.4887 0.0 111.54 54.4887 0.0 114.4 54.4887 0.0 
32.89 56.9655 0.0 35.75 56.9655 0.0 38.61 56.9655 0.0 
41.47 56.9655 0.0 44.33 56.9655 0.0 47.19 56.9655 0.0 
50.05 56.9655 0.0 52.91 56.9655 0.0 55.77 56.9655 0.0 
58.63 56.9655 0.0 61.49 56.9655 0.0 64.35 56.9655 0.0 
67.21 56.9655 0.0 70.07 56.9655 0.0 72.93 56.9655 0.0 
75.79 56.9655 0.0 78.65 56.9655 0.0 81.51 56.9655 0.0 
84.37 56.9655 0.0 87.23 56.9655 0.0 90.09 56.9655 0.0 
92.95 56.9655 0.0 95.81 56.9655 0.0 98.67 56.9655 0.0 
101.53 56.9655 0.0 104.39 56.9655 0.0 107.25 56.9655 0.0 
110.11 56.9655 0.0 112.97 56.9655 0.0 115.83 56.9655 0.0 
34.32 59.4422 0.0 37.18 59.4422 0.0 40.04 59.4422 0.0 
42.9 59.4422 0.0 45.76 59.4422 0.0 48.62 59.4422 0.0 
51.48 59.4422 0.0 54.34 59.4422 0.0 57.2 59.4422 0.0 
60.06 59.4422 0.0 62.92 59.4422 0.0 65.78 59.4422 0.0 
68.64 59.4422 0.0 71.5 59.4422 0.0 74.36 59.4422 0.0 
77.22 59.4422 0.0 80.08 59.4422 0.0 82.94 59.4422 0.0 
85.8 59.4422 0.0 88.66 59.4422 0.0 91.52 59.4422 0.0 
94.38 59.4422 0.0 97.24 59.4422 0.0 100.1 59.4422 0.0 
102.96 59.4422 0.0 105.82 59.4422 0.0 108.68 59.4422 0.0 
111.54 59.4422 0.0 114.4 59.4422 0.0 117.26 59.4422 0.0 
35.75 61.919 0.0 38.61 61.919 0.0 41.47 61.919 0.0 
44.33 61.919 0.0 47.19 61.919 0.0 50.05 61.919 0.0 
52.91 61.919 0.0 55.77 61.919 0.0 58.63 61.919 0.0 
61.49 61.919 0.0 64.35 61.919 0.0 67.21 61.919 0.0 
70.07 61.919 0.0 72.93 61.919 0.0 75.79 61.919 0.0 
78.65 61.919 0.0 81.51 61.919 0.0 84.37 61.919 0.0 
87.23 61.919 0.0 90.09 61.919 0.0 92.95 61.919 0.0 
95.81 61.919 0.0 98.67 61.919 0.0 101.53 61.919 0.0 
104.39 61.919 0.0 107.25 61.919 0.0 110.11 61.919 0.0 
112.97 61.919 0.0 115.83 61.919 0.0 118.69 61.919 0.0 
37.18 64.3958 0.0 40.04 64.3958 0.0 42.9 64.3958 0.0 
45.76 64.3958 0.0 48.62 64.3958 0.0 51.48 64.3958 0.0 
54.34 64.3958 0.0 57.2 64.3958 0.0 60.06 64.3958 0.0 
62.92 64.3958 0.0 65.78 64.3958 0.0 68.64 64.3958 0.0 
71.5 64.3958 0.0 74.36 64.3958 0.0 77.22 64.3958 0.0 
80.08 64.3958 0.0 82.94 64.3958 0.0 85.8 64.3958 0.0 
88.66 64.3958 0.0 91.52 64.3958 0.0 94.38 64.3958 0.0 
97.24 64.3958 0.0 100.1 64.3958 0.0 102.96 64.3958 0.0 
105.82 64.3958 0.0 108.68 64.3958 0.0 111.54 64.3958 0.0 
114.4 64.3958 0.0 117.26 64.3958 0.0 120.12 64.3958 0.0 

POINT_DATA 810
SCALARS correlation_coefficient double
LOOKUP_TABLE default
1366372.1081575297
-278070.78468560235
-187664.09304339648
139883.03476431684
-9539.86452462293
-3303.6856525142503
7836.8965503502595
-547.639223855711
-8560.960327497836
6042.2984733853555
-3566.458931398719
4184.983382926412
-4023.2545424498426
9322.573311619313
-7221.749529329945
-1017.485294696241
-7221.749529329933
9322.57331161932
-4023.2545424498426
4184.983382926426
-3566.4589313987194
6042.298473385355
-8560.96032749784
-547.6392238557145
7836.8965503502595
-3303.6856525142475
-9539.864524622932
139883.03476431684
-187664.09304339648
-278070.7846856023
-277155.4258786936
-329110.5937014834
247834.04164718394
-70726.49392420727
8571.79582311672
-4031.504480295466
4162.0803038894155
-4135.903432570329
9331.12009842272
-2466.76643158726
-5541.938276466553
3454.5816304614505
5107.264973531913
-6148.708111310223
-57.21162362367263
1133.499836811035
2224.754046685161
-4796.137076488484
4147.624640065329
-5238.804573849533
605.4425524477157
-1640.1879776051635
470.01762121882723
11001.252900790125
-12852.275201342805
6020.188945623583
7336.001570643572
27931.054232671417
-129374.01087133032
568721.4501477905
-190786.4947032551
248187.5709345766
-117473.02019749384
15258.250658413666
-10643.580725640579
2065.7726999889724
3569.199245317302
3169.5048741277005
-6254.1950878224925
-3005.9961330968404
7990.378531615842
-1152.1885355369132
-4846.268386269742
-615.5751367763021
79.97551788916192
-7813.338171014174
1927.5674133998025
585.0069185032705
-8277.142340226339
2252.2970501046134
5124.891589728563
-10501.399268125691
8188.108770323683
-11859.36733976129
5472.9731506814305
-5363.888478747656
12919.108805822785
-1466.667636053933
-10254.724487747577
-131892.64823690933
141176.0501095281
-74407.33555964656
11894.53986384209
-5261.270703214975
1164.7288855396155
3778.8821198926516
-4452.705696127003
-7608.693350462539
4224.677054674798
5745.352728660546
-3978.1228972544236
-7016.4331217993995
3610.182496245739
-3235.5853290253026
-6223.69253335146
7101.830817846465
-2612.459303950565
-1247.3148137240182
2680.4720557156743
-2086.5165256329065
-11887.718503193604
4404.5410959362025
-11116.122638004537
1407.0565440371918
-3935.9202990670333
-5527.4703850852175
11316.004426275009
-19188.908069569035
-8144.311689690927
34864.757376238624
-17607.791040787542
8441.080046960542
-846.022232986079
2419.4974518967533
2822.0867864942275
-9702.334921724607
-736.7480186698316
3448.7233963765175
3904.431361897152
-7543.156253723414
-2561.2892173626383
10709.13884089974
-5656.9842915576255
-1912.6927362925812
10115.632812580536
-12702.259117494223
-1457.4706462301028
10232.91557296493
-13306.463479286764
-1528.1410079995155
15686.975981866379
-6664.44840767909
-109.74034370221172
2380.8754266210235
1780.1501236009678
5084.485907956813
-10330.070242632835
7370.762178301289
23803.22071076464
9549.51290974366
1455.4730596791755
-540.1465488872275
757.0207908950914
-2249.2826459459793
-7193.29394142381
4336.795350824299
-1742.5271702910993
4099.629381108603
-4867.7329143329835
-1913.565302377765
9922.74969749047
-10507.695338989259
-10898.149641173848
13302.839498073867
-16895.15758750069
-1148.7927196017445
10551.884687091322
-14161.596778634077
1626.6585242218155
16845.427455476874
-9061.864567358296
-6463.33647931368
4958.531688462931
-976.5721719396304
-1869.9509635754762
-12687.73874670724
12427.285386218231
1653.732258211815
-6473.892372390098
1937.3954685899148
-2471.232820126021
1327.896663175788
-8132.203586955296
95.19742979528058
4999.835677997364
-10235.217841992115
3915.1596806363814
-2399.3677996635984
-4744.815512426601
9309.49202095814
-8265.77432368351
-9335.996472936293
16933.120282189073
-11658.995461274904
6658.178205894627
4125.7736496340585
-11987.491605485617
2468.589237830955
4303.042896610963
-12606.822004145653
-1169.4683705644861
1898.7140641827966
2297.912454152117
-2454.9397545888482
330.9027538592372
7965.81577323237
-512.5809423857734
-7609.16971675103
9671.08343362993
-3692.4232462807686
6837.574549617797
-10744.606480624603
3819.3502467618328
4452.474599767432
-13590.27916319223
5450.625463120443
-974.3936281527971
-6216.451703500261
8539.627467739594
-5316.784975410185
1872.874187620989
10595.311851422899
-9545.748277313087
5866.014180179943
-1197.4236091553387
-11253.748856170254
6752.82053846819
-6497.79489462053
-12352.75372325399
9775.642941966735
-1357.866011336974
-241.3503915416389
-4705.512925339065
1474.6884540757928
4909.652735671373
-5313.833958227711
-8645.509525783573
2378.575473627614
-6690.12634304803
1270.8517520385794
-12670.615276032317
7940.389916431365
-3083.111480451646
-7495.481027835223
8869.881516391453
-3593.4637200254665
-4473.6792699147445
5521.804381244672
-4655.387093837383
-5851.094296910144
10690.118745012203
-10806.164298967306
-2958.9593962617405
348.3408519558682
-9275.409990487762
11707.136187985676
-12318.011521776376
-3125.676106643886
15496.332994491844
-1754.4142017176662
-11561.087017200423
-1102.8523800516484
2632.3445451315565
844.3939580604865
-3006.1529695319605
-3907.553930302049
-2592.9696169899553
-1176.8015477764507
3589.507063168946
2065.9828873748925
5965.9027049991955
1765.8165382035431
-6432.106154396615
9810.861779496172
-6073.321658427254
-1070.6762326552564
-1222.7479933224502
538.2417610338913
-5020.032023503889
8166.111085532529
-6875.228182753958
-7653.404008732947
6656.386254167848
-4741.797588670273
4560.474445418332
-5429.9762979749785
547.3668847841394
13203.692584652921
-4327.304891569923
-7774.667385955784
-788.8178915329772
10429.298030979935
3133.0926177785445
-117.55185336500121
-4961.103160859164
-2689.761011297208
11080.737794969707
259.66555640921564
-3231.8170784318113
-6101.354313997593
6255.820515267594
-7680.818490524608
5058.277627628862
580.1921976519056
91.11510687458158
-2436.8269983575165
2290.7787515959308
2639.5019557620326
-509.572200971261
1079.9070236455225
-11300.109954382777
5700.4753149528615
-1011.9269703479118
-7589.899046748644
4935.895286356579
-4357.933653927573
3630.858852747345
-7392.243615578021
-7724.1151566913995
3511.2636835531234
9479.89466770414
-2114.094302623269
-1802.0264844840174
-4095.3019023902834
-768.4867183719192
8666.440723634085
-8263.85495532266
-11914.664898365085
9468.803698429849
1023.692304951059
-6179.428748938802
1592.0140186890205
7263.241318760027
-5314.127917599573
-1388.7103096608619
2831.0287199757586
2870.4469682265603
-9492.083681077529
3186.7594810652154
-6633.144302403241
2502.861059698123
-1571.6798077913968
-7488.330983827531
4649.19812722503
2988.2586780613215
-10202.729209722484
-4890.733403986677
-3152.914505401667
7142.875995099831
482.3020560007663
-9715.089979942753
-3556.6043304289533
-3231.8764160594437
-5646.591413540014
6992.62942934098
-8223.9996121459
-13739.966249518051
8790.037369658876
2354.2285417282988
-6928.089033761034
1445.3328205086327
5970.574176165452
-10586.368197897498
-1472.048300290358
-367.8514375159777
-1846.7458374447947
-9225.883516746284
5418.014233647306
-6829.3384135128135
-3130.3836898250606
-1282.4317013447696
-98.2660973480659
-4483.304794857145
5122.950967106555
-8694.002016209612
-2881.34901185984
5414.134933810415
4148.608660038171
-5360.889920910754
-12281.041072560452
1317.8731486573124
4315.71751338618
-6182.486613277946
6230.754429792773
-8300.92351031442
-3401.349545465341
2672.563519332437
8230.478134321653
-14638.227882516838
370.63062852413435
-7090.3554947307575
-13826.220146553762
4650.271604974607
-143.9382243877576
-2614.179830563082
-6153.488255723931
5452.428293584217
-6037.83114296371
-6774.037114532004
-86.9012868425618
-3459.554061585863
-5880.667780186717
1610.6338008867942
1.6831502308594752
-3755.348999771288
602.0711916240548
964.1673943366104
-6015.5008862850955
-3057.076741155918
3948.4578424890556
-1041.225294704468
-3740.98671567166
5348.624574798534
-8988.53084983601
-1187.6947751092434
3029.1213083276407
5548.320005370688
-10956.981726109896
3935.451712130255
8548.852445541002
-7090.355494730759
8548.852445540972
3935.451712130252
-10956.981726109894
5548.3200053706805
3029.1213083276393
-1187.6947751092437
-8988.530849836015
5348.6245747985295
-3740.986715671666
-1041.2252947044637
3948.457842489064
-3057.076741155917
-6015.500886285097
964.1673943366116
602.0711916240624
-3755.348999771293
1.6831502308534119
1610.6338008867933
-5880.667780186726
-3459.554061585858
-86.90128684256018
-6774.0371145320105
-6037.831142963716
5452.428293584217
-6153.4882557239325
-2614.1798305630855
-143.93822438776004
4650.271604974595
-13826.220146553767
1445.3328205086204
370.6306285241282
-14638.227882516829
8230.478134321653
2672.5635193324383
-3401.3495454653403
-8300.92351031442
6230.754429792779
-6182.486613277945
4315.717513386181
1317.8731486573147
-12281.041072560452
-5360.889920910756
4148.608660038173
5414.134933810414
-2881.349011859837
-8694.002016209608
5122.95096710656
-4483.304794857144
-98.26609734804865
-1282.4317013447705
-3130.383689825064
-6829.338413512815
5418.01423364732
-9225.883516746284
-1846.7458374447924
-367.85143751597957
-1472.0483002903554
-10586.368197897498
5970.57417616543
-6179.4287489387725
-6928.089033761001
2354.2285417282765
8790.037369658885
-13739.96624951805
-8223.9996121459
6992.629429340978
-5646.591413540007
-3231.876416059442
-3556.6043304289506
-9715.089979942759
482.30205600075453
7142.875995099831
-3152.914505401665
-4890.733403986677
-10202.729209722489
2988.2586780613155
4649.198127225028
-7488.330983827532
-1571.6798077914025
2502.8610596981252
-6633.144302403243
3186.7594810652176
-9492.083681077533
2870.4469682265617
2831.028719975757
-1388.7103096608591
-5314.12791759958
7263.241318760025
1592.0140186890408
6255.820515267619
1023.6923049510698
9468.803698429854
-11914.664898365087
-8263.854955322658
8666.440723634081
-768.486718371918
-4095.301902390291
-1802.0264844840199
-2114.0943026232667
9479.894667704137
3511.2636835531216
-7724.1151566914
-7392.243615578019
3630.8588527473394
-4357.933653927565
4935.895286356582
-7589.899046748645
-1011.9269703479118
5700.475314952854
-11300.109954382775
1079.90702364552
-509.57220097126265
2639.50195576203
2290.778751595931
-2436.826998357522
91.11510687458373
580.1921976518869
5058.277627628865
-7680.818490524638
5965.9027049991955
-6101.354313997622
-3231.8170784318236
259.6655564092108
11080.737794969704
-2689.761011297209
-4961.103160859164
-117.55185336499198
3133.0926177785477
10429.298030979937
-788.8178915329767
-7774.667385955779
-4327.304891569923
13203.692584652916
547.3668847841435
-5429.976297974983
4560.474445418335
-4741.797588670274
6656.386254167848
-7653.4040087329495
-6875.228182753962
8166.111085532528
-5020.032023503889
538.2417610338966
-1222.7479933224502
-1070.6762326552525
-6073.321658427253
9810.861779496185
-6432.10615439661
1765.816538203549
-12670.615276032342
2065.982887374931
3589.507063168949
-1176.801547776452
-2592.9696169899553
-3907.55393030205
-3006.152969531958
844.3939580604792
2632.3445451315533
-1102.852380051647
-11561.087017200418
-1754.414201717669
15496.332994491844
-3125.6761066438867
-12318.011521776372
11707.136187985676
-9275.409990487762
348.3408519558719
-2958.95939626174
-10806.164298967302
10690.118745012202
-5851.094296910144
-4655.387093837385
5521.804381244655
-4473.6792699147445
-3593.463720025462
8869.881516391451
-7495.48102783522
-3083.1114804516665
7940.389916431411
6837.5745496177915
1270.8517520385824
-6690.12634304804
2378.5754736276235
-8645.509525783571
-5313.8339582277085
4909.652735671373
1474.6884540757885
-4705.512925339063
-241.35039154164
-1357.866011336973
9775.642941966738
-12352.753723253989
-6497.794894620533
6752.820538468188
-11253.74885617026
-1197.423609155342
5866.014180179947
-9545.748277313087
10595.31185142291
1872.8741876209892
-5316.784975410188
8539.627467739594
-6216.451703500254
-974.3936281527976
5450.625463120441
-13590.279163192226
4452.47459976743
3819.3502467618328
-10744.606480624621
-2471.2328201260248
-3692.423246280786
9671.083433629929
-7609.16971675103
-512.5809423857683
7965.81577323237
330.90275385923775
-2454.939754588842
2297.91245415212
1898.7140641827953
-1169.4683705644818
-12606.822004145644
4303.042896610961
2468.5892378309627
-11987.491605485615
4125.773649634059
6658.178205894628
-11658.995461274919
16933.12028218907
-9335.9964729363
-8265.774323683507
9309.492020958143
-4744.815512426604
-2399.367799663588
3915.1596806363814
-10235.217841992115
4999.83567799736
95.19742979528166
-8132.203586955306
1327.8966631757773
1455.473059679167
1937.3954685899155
-6473.892372390081
1653.7322582118077
12427.285386218226
-12687.738746707237
-1869.950963575476
-976.572171939629
4958.531688462926
-6463.336479313678
-9061.864567358303
16845.427455476864
1626.6585242218164
-14161.59677863408
10551.884687091322
-1148.7927196017386
-16895.157587500686
13302.839498073872
-10898.149641173848
-10507.695338989264
9922.749697490466
-1913.5653023777647
-4867.7329143329835
4099.629381108593
-1742.5271702910993
4336.795350824303
-7193.293941423812
-2249.282645945982
757.0207908950922
-540.146548887235
-17607.791040787557
9549.512909743684
23803.22071076464
7370.762178301294
-10330.070242632833
5084.485907956815
1780.1501236009674
2380.8754266210167
-109.74034370221219
-6664.44840767909
15686.975981866375
-1528.141007999512
-13306.463479286762
10232.915572964928
-1457.4706462301017
-12702.259117494228
10115.632812580528
-1912.6927362925796
-5656.984291557625
10709.138840899752
-2561.2892173626406
-7543.156253723414
3904.4313618971537
3448.723396376518
-736.7480186698308
-9702.334921724605
2822.0867864942293
2419.4974518967633
-846.0222329860795
8441.08004696055
141176.0501095281
34864.75737623864
-8144.31168969092
-19188.908069569046
11316.004426275013
-5527.470385085225
-3935.9202990670333
1407.0565440371897
-11116.122638004537
4404.541095936199
-11887.718503193604
-2086.5165256329096
2680.4720557156725
-1247.3148137240123
-2612.4593039505603
7101.830817846469
-6223.692533351459
-3235.5853290253012
3610.182496245738
-7016.433121799397
-3978.1228972544213
5745.352728660546
4224.677054674795
-7608.693350462535
-4452.705696127003
3778.8821198926453
1164.7288855396143
-5261.270703214979
11894.539863842088
-74407.33555964656
-190786.4947032551
-131892.64823690936
-10254.724487747582
-1466.667636053932
12919.108805822785
-5363.888478747642
5472.9731506814305
-11859.367339761277
8188.108770323682
-10501.399268125688
5124.891589728559
2252.297050104611
-8277.142340226337
585.006918503252
1927.5674133997995
-7813.338171014167
79.9755178891673
-615.5751367763086
-4846.268386269744
-1152.1885355369284
7990.37853161584
-3005.9961330968367
-6254.195087822495
3169.5048741277024
3569.199245317302
2065.772699988978
-10643.580725640577
15258.25065841367
-117473.02019749384
248187.5709345765
-277155.4258786936
568721.4501477906
-129374.01087133029
27931.0542326714
7336.001570643572
6020.1889456235685
-12852.275201342805
11001.2529007901
470.01762121883274
-1640.1879776051685
605.4425524477189
-5238.804573849514
4147.624640065327
-4796.137076488451
2224.7540466851556
1133.499836811024
-57.211623623689604
-6148.708111310201
5107.264973531911
3454.5816304614577
-5541.938276466558
-2466.766431587268
9331.120098422727
-4135.903432570349