# vtk DataFile Version 5.1
vtk output
ASCII
DATASET STRUCTURED_POINTS
DIMENSIONS 256 256 1
SPACING 1 1 1
ORIGIN 0 0 0
POINT_DATA 65536
SCALARS volume_scalars double
LOOKUP_TABLE default
0.75226926318 0.32894438526 -0.21714821808 -0.3425305889 -0.45687982652 -0.95268477242 -0.93942187537 -0.72375478186 -1.2262587507 
-1.6748258838 -1.3343396306 -0.48742184888 0.15691543315 0.46846522104 0.72111511239 1.2854992004 1.593081652 0.74847393148 
-0.22430295439 -0.55862922838 -0.8380212871 -1.277607026 -1.0221489535 -0.12023006264 0.27766704944 0.011252593361 -0.36937200766 
-0.14793383278 0.4772830047 0.33625014968 -0.22119698835 -0.28944967362 0.47256796206 1.3554124138 1.4759029668 1.3051961179 
1.3087188212 0.90337473673 -0.053657411815 -0.89865591219 -0.84793309997 -0.35225892381 -0.43901796283 -0.78350699214 -0.45631090281 
0.34734405331 0.69658785345 0.32161572331 -0.062936776758 -0.33017922015 -0.46996016205 0.09783149575 0.57639623492 0.45271181331 
0.62405488058 1.0616471444 0.98537460487 0.15660705552 -0.68495362575 -1.1331630766 -1.0299748609 -0.46762123142 -0.035293169927 
0.29610643055 0.73252794351 1.3147261108 1.3355253619 0.25897084914 -0.23322083404 0.44498090602 1.1000210456 1.0604012089 
0.13550374474 -0.8362976327 -1.3308995981 -2.0384058965 -2.4687176333 -1.204061515 0.32118964475 1.0887682113 1.711247376 
1.8218443813 1.4170103768 0.59862392752 -0.57763816634 -1.3843865145 -1.5185344314 -1.4174610514 -0.95933781637 -0.26217199017 
0.26691466774 0.32753904204 0.26545669469 0.19809954346 -0.46785358697 -1.2302517281 -1.0343644994 -0.24825747628 0.31186255642 
0.40751001547 -0.19391482351 -1.1706837741 -1.5821910311 -1.0336586382 -0.40222895986 -0.025424926078 1.0578669379 2.0383526834 
1.4644500439 0.014049210058 -0.59526964985 0.084858270472 0.56910034623 0.51304427968 1.0567242227 1.6657855913 0.78414258983 
-0.8586935488 -1.7077948791 -1.223180899 -0.26599072423 -0.1309368781 -0.18487047955 0.17450505414 0.037927521662 -0.61007273001 
-1.0567453106 -1.1809758253 -1.1137469799 -0.61393008622 0.36605840986 1.1134907533 0.83166004884 -0.46718729632 -1.586518365 
-1.5213696096 -0.86745050177 0.093806234211 1.0227031036 1.0583597759 0.48439510644 -0.24324039758 0.030811508511 1.2517543153 
1.6748467487 1.2240502291 0.95046342762 0.79904664238 0.265293296 -0.27635224542 -0.61549877184 -0.89351483805 -1.0605162073 
-0.66049246129 0.5783313347 1.830217292 1.9064809337 1.0592588702 0.64837244212 0.70805485719 0.28244499774 -0.50435127535 
-0.60797077146 -0.14863364536 -0.11006869129 -0.44331894533 -0.6588238953 -0.16138508785 0.51047573752 0.24206533712 -0.42095443212 
-0.26041377597 0.34127413784 0.52846581824 0.18529199228 -0.28470000907 0.21085068936 1.0782552081 0.83158662314 0.00030859451087 
-0.44199201181 -0.48587127475 -0.15032086539 0.35287058688 0.26333892271 -0.42236982662 -0.90209877677 -0.68540155273 -0.28494032211 
-0.086930301865 0.015955196681 -0.18032716235 -0.66382680963 -1.0947126519 -1.3414030179 -1.2157168784 -0.70501781184 0.10146796641 
0.8656949488 0.88465811262 0.28547892567 0.053656280176 0.69199015718 1.1495694818 0.9443611892 0.45155717768 -0.1602642104 
-0.50066133909 -0.67223183741 -1.0045841003 -1.1449875922 -0.96441727526 -0.98588021625 -1.0068147169 -0.14557461174 1.7376402733 
3.1073807199 2.0464686869 -0.29296717659 -1.0240150154 0.053942063633 0.6422472326 0.36662230396 0.32571186714 0.1914717206 
-0.45295571278 -0.72572807117 -0.51766378277 -0.44974333073 -0.26725560362 -0.0099227129522 -0.016538827368 0.33643332972 1.4597890323 
1.8080181784 0.86091301716 0.13400216877 0.10508815837 -0.23440070578 -1.5448772318 -2.6937219354 -2.3179453454 -0.98242541228 
0.34743915164 1.3423875052 1.7016791596 1.3303002577 0.58303988122 0.13000378768 0.1375871372 0.14274634186 -0.097018694893 
-0.59830268894 -0.59672748722 0.34622231405 0.91266279256 1.7184315304 1.5824449669 0.58878505901 -0.42456600812 -1.157542489 
-1.64280505 -1.2862799264 -0.79913160695 -1.046499571 -1.2517729259 -1.0839531331 -0.79235838442 -0.48677462261 0.082959687789 
0.75225214925 1.3830251286 1.6486441689 0.69619023081 -0.46066732565 -0.62101493099 -0.41353149076 -0.48773028115 -0.23085893401 
0.39459996116 0.30160692604 -0.31863453336 -0.75947992146 -0.54317102605 0.33064630352 0.37736405803 -0.3880806614 -0.45656093882 
0.52952857461 1.3118143389 1.1860898704 0.96550937258 1.1486501207 1.1171925442 0.25836675456 -0.66187601955 -0.52481678728 
0.12493631765 -0.089917045262 -0.77460151642 -0.46863231299 0.42199599618 0.58793843458 0.036868844755 -0.32691906692 -0.34431200102 
-0.38474782489 -0.011532484181 0.42582194917 0.20803020131 0.19752388407 0.85797106676 1.3046411128 0.69486773035 -0.47295249556 
-1.4191808675 -1.5202084273 -0.72694668555 -0.071464483649 0.20360687149 0.60800603122 1.3048244925 1.5458171635 0.82743374391 
0.38839219009 0.72179196347 0.76511728189 0.18772138259 -0.49155428073 -0.84530424964 -1.3878123438 -2.4869519477 -2.7387233004 
-0.87586682697 1.0670261166 1.6907383531 1.9942547461 1.931348932 1.1123763747 -0.062442031122 -1.0192411704 -1.4347439856 
-1.2759582932 -1.1661199877 -0.86894511475 -0.022459883251 0.61314556602 0.58335008167 0.30724601593 0.02077137412 -0.41669402264 
-1.0138274678 -1.098521667 -0.31321706822 0.67079415972 0.84964834157 -0.017566119208 -1.2656998335 -2.0539282189 -1.6847385654 
-0.87787644384 -0.35648521717 0.71103124971 2.0229253477 1.8737427955 0.34814581753 -0.43470874762 0.39035813289 1.0531276183 
0.8144988381 0.84316947511 1.0494587053 0.13602394542 -1.2916683757 -1.8133847847 -1.1826565305 -0.37766008416 -0.27560510152 
-0.21597864361 0.22196488368 0.11783387022 -0.32534335398 -0.33875912142 -0.29980259477 -0.30220127373 0.079078190565 0.60125710695 
0.65416808591 0.017003119461 -1.0120723336 -1.7893759809 -1.8006028793 -1.3084890084 -0.22159156203 0.92345070209 1.0957890891 
0.52765225026 -0.49957368977 -0.62950790813 0.47511878945 1.284000243 1.6967014187 2.0871692925 1.6912521461 0.34006024028 
-0.49090596277 -0.54157534888 -0.65736360665 -0.77670152173 -0.40208985577 0.44867936178 1.4504739175 1.8184575461 1.1499596399 
0.32310032337 0.081848261993 -0.090822903812 -0.44579028784 -0.37485334561 -0.097360681601 -0.17265986204 -0.39529878695 -0.44769804275 
0.10482776519 0.60298315943 0.21817757775 -0.51854138488 -0.48783273597 0.074617880929 0.15039532125 -0.19468263697 -0.25470505227 
0.47438317193 1.2241145342 0.86772539504 -0.17418062682 -0.81475219501 -0.7114107498 -0.0022666098794 0.77680220186 0.73530399537 
0.038235969349 -0.24114798794 0.2180279839 0.60553579617 0.3145038925 -0.31001696542 -0.7490506458 -0.91605552617 -1.0766466191 
-1.2709449421 -0.97164355865 -0.45612502933 0.045929159329 0.85685779642 1.0860941919 0.33812280492 -0.15038660184 0.38646045961 
0.96701714531 0.79697029026 0.17288394871 -0.57961228932 -0.86382439002 -0.63052434875 -0.70180698859 -1.2640664099 -1.5657579225 
-1.3494999195 -0.98983111248 0.074350831636 2.0600352097 3.2068555731 1.9275877172 -0.14587982179 -0.65031709765 -0.087117773362 
0.0016681948294 -0.030130497115 0.47359734111 0.72937351934 0.090479674593 -0.52926474086 -0.56514861018 -0.49918267803 -0.46436850031 
-0.42278291814 -0.35899015572 0.3644540806 1.9054671385 2.2389211284 0.78320196458 -0.33548305467 -0.32999052329 -0.51635751387 
-1.5691928905 -2.4583694787 -2.1007969839 -0.93935033357 0.10646823261 0.77958732137 1.0816428287 1.007900294 0.71466492016 
0.57000887166 0.66823751116 0.59718260434 -0.13969873761 -1.1810921989 -1.0902074464 0.2413558546 1.2607170784 2.382995721 
2.1735370473 0.79502176228 -0.76090433336 -1.7682690153 -2.0346497423 -1.4733342179 -1.0034902564 -1.1131383081 -0.99973257017 
-0.65775201799 -0.65155692035 -0.7323995599 0.00068911925369 1.0609095103 1.6041634198 1.4219803488 0.14306748976 -1.0701034764 
-0.8735659521 0.11295016772 0.44460881158 0.3051259571 0.48734413933 0.27189373901 -0.32255595311 -0.82569591183 -0.77809375592 
0.19527751453 0.47746595029 -0.33284212516 -0.55351061452 0.18913623204 0.67765161634 0.63351318231 0.6577779835 1.2290663815 
1.7414253888 1.0036614066 -0.20277711433 -0.40571815318 0.12930988165 -0.037104672764 -0.71193966339 -0.41683256332 0.32368546649 
0.28922333395 -0.35247193143 -0.78569667751 -0.57781763323 -0.18377387494 0.28056877776 0.54968621668 0.084859009934 -0.10685409425 
0.66480885118 1.4271951571 1.0705024999 -0.13984277431 -1.2176707733 -1.5320236603 -0.78607209931 0.083828159209 0.31184997763 
0.42501387874 1.0735045665 1.4330706638 0.88334384024 0.59421281294 0.83385509938 0.30020454332 -0.77271548074 -1.034571239 
-0.78852889585 -1.4531735852 -2.7722933589 -2.8173824548 -0.57017325468 1.765737875 2.3871121146 2.4821753087 2.1587885492 
0.65197582956 -0.97964729013 -1.4791523443 -1.2665815337 -1.0056696104 -1.0314760561 -0.79136300506 0.24520740538 0.97882155326 
0.88135109203 0.38209864919 -0.163347505 -0.31069655572 -0.41749068569 -0.56599927986 -0.22119438627 0.49878094819 0.56651963855 
-0.12204114272 -1.1374353414 -2.056287443 -1.9224841872 -1.2106763657 -0.61512496427 0.32991269887 1.6368543202 1.9289779648 
0.8855476415 0.12577149136 0.61941922597 1.2098539694 0.99677010343 0.51207359348 0.21115517553 -0.44927661361 -1.5109190555 
-1.9596504114 -1.3399232987 -0.56615242599 -0.38237239849 -0.42213148108 -0.018388352658 0.28520028703 0.17754175179 0.085495786204 
-0.058101128873 0.11846319378 0.82964845291 1.1118099234 0.37375629126 -0.82668443797 -1.6319375635 -1.8783101304 -1.7180792787 
-1.1417233858 -0.045024720528 0.9026814716 0.98342743478 0.40987556479 -0.55410255017 -0.77966519159 -0.012211740337 0.71597495121 
1.6606373463 2.7101264145 2.2945534434 0.57572206888 -0.34007350896 -0.29296453158 -0.39918347486 -0.55245838604 -0.25938056634 
0.18686764964 0.77755609108 1.3442666323 1.0923435647 0.17067618318 -0.19884039531 -0.074825326549 -0.014299089029 0.14438040423 
0.069099497167 -0.45976872321 -0.8800392749 -0.69088227637 0.18007683589 0.69009032935 0.30819839718 -0.23296159932 -0.35562109069 
-0.21183834312 -0.25002215355 -0.41243728696 -0.15252448029 0.62629905262 1.1199541112 0.60045894701 -0.56563531074 -1.0753317851 
-0.46232575724 0.59780760386 1.2555830097 0.92482719372 0.29566764507 0.44899019544 0.90376786213 0.86846123071 0.21929556445 
-0.65121106515 -1.0728765883 -1.023523363 -0.9927353279 -0.94707801884 -0.47268568151 -0.070832453549 0.058454642502 0.63563146332 
0.94322395182 0.26180105392 -0.25275160159 0.037906344784 0.36120600849 0.2550884757 -0.085826126649 -0.64651697707 -0.78142639887 
-0.36179110451 -0.53132318279 -1.5188583677 -2.0194216065 -1.3941037394 -0.53181756228 0.58880587836 2.1114045001 2.799657828 
1.6246362312 0.11292868292 -0.20561230809 -0.24128140141 -0.58390839035 -0.52020103388 0.17795221653 0.83639512687 0.47623455567 
-0.35718156881 -0.51040091057 -0.27253129555 -0.18676939039 -0.29089320245 -0.3585090075 0.4268941475 1.922894386 1.9399938696 
0.11854096696 -1.0820776504 -0.80463159481 -0.61098644901 -1.0725947816 -1.375608371 -0.98342157473 -0.54846693797 -0.38800757982 
-0.1748529173 0.12544554124 0.43469257811 0.79190721221 1.0575382593 1.0737898705 0.68962653513 -0.21963682028 -1.0790218497 
-0.857177514 0.40435776353 1.6188343761 2.1369748445 2.0525527825 0.95196758533 -0.62531005275 -1.8268633698 -2.015840608 
-1.3925794855 -1.0286164984 -1.1814431787 -1.0523695641 -0.64130025576 -0.65550280785 -0.6762907516 0.35916749556 1.529347191 
1.7415124274 0.91493337806 -0.74340384805 -1.7577043589 -0.99176771842 0.69974199017 1.2485814955 0.58070668176 0.34971055711 
0.41137808526 0.042268452568 -0.79987057931 -1.0101150185 -0.016611684642 0.38066289698 -0.41125665815 -0.85591755218 -0.40121102595 
0.14251872896 0.48631397638 0.6301325991 1.3342841116 2.3492531723 1.9437169609 0.44488626052 -0.31771018794 -0.099443741283 
-0.19350067921 -0.7951292409 -0.63130631224 0.031397892455 0.020398685066 -0.61765514126 -1.2047442951 -0.90954055574 0.043395857724 
0.72470771151 0.64634278049 -0.17002491634 -0.50050876604 0.33610776461 1.3691270115 1.4375368611 0.45449197678 -0.67663471383 
-1.2127119101 -0.6202207693 0.31505595866 0.47775959872 0.30845778702 0.76350796643 1.0054002759 0.47016698898 0.45251945514 
0.75208157856 -0.12932306722 -1.3853834058 -1.3596974065 -0.81976595743 -1.3484167136 -2.4127783247 -2.2155727604 -0.071872215858 
1.8850417895 2.1806320961 2.3340200335 2.2923420902 0.6401028473 -1.3685253169 -1.7480094019 -1.0895585844 -0.75791368776 
-0.91454512193 -0.66706244339 0.42147327397 1.1136295049 1.0572051719 0.58143509772 -0.15129399397 -0.30056767592 -0.053439122595 
-0.067548945419 -0.082586396101 0.12031882166 -0.042753853581 -0.31536547469 -0.73218716998 -1.4890282859 -1.6901993059 -1.3696602579 
-0.80933289754 0.01804221622 1.1231724243 1.6667008702 1.291642316 0.73689921316 0.7590312843 1.0488929537 0.83899215655 
0.089452493356 -0.67302397009 -1.1603620575 -1.6630817539 -1.7991790164 -1.1554611236 -0.47745951128 -0.24848604921 -0.32508637934 
-0.17864685198 0.11904555799 0.25305809261 0.16896530755 -0.013829657502 0.29325619658 1.1321221069 1.2361232848 0.023374634924 
-1.4265328857 -1.9275117113 -1.6448681682 -1.1284118136 -0.42711598991 0.28459023846 0.68164435725 0.62332958047 0.10003373356 
-0.5202300183 -0.48810862275 -0.079099434704 0.32343979013 1.4670053393 2.8541089587 2.609762677 0.96502165701 -0.10635680416 
-0.21160432777 -0.26538758218 -0.45908152468 -0.34155433083 -0.10535727679 0.20143456616 0.78998388007 0.94043425769 0.19961231722 
-0.16079458332 0.13425235268 0.48153059775 0.73651522839 0.45709387879 -0.54085556831 -1.386870346 -1.1667421165 -0.15354626725 
0.35199438539 0.017770067965 -0.021176763213 0.23451702112 0.15083958774 -0.14119074363 -0.32957930621 -0.14533957114 0.32342480388 
0.51315736182 0.068252429938 -0.72795202051 -0.77135375512 0.21694272545 1.3080998077 1.6893588163 1.0014340261 0.33870582351 
0.66210468474 0.80494981006 0.41546455454 -0.087807704185 -0.71927859344 -1.0838723227 -1.1280422775 -1.0218641553 -0.52156207617 
0.2414083321 0.45441250071 0.11775883258 0.18181267629 0.47537502089 0.18367422255 -0.19367402243 -0.22586463091 -0.28360557891 
-0.31469164354 -0.34436061474 -0.75351291479 -0.79991071019 -0.26491789167 -0.39045613889 -1.439729594 -1.8700978958 -0.89963583298 
0.23180927557 1.0585885661 1.8364035558 2.1157713859 1.3215197108 0.49153371266 0.35035583149 0.0025684187206 -0.73693332642 
-1.1352643071 -0.6317914584 0.39352566566 0.32249945752 -0.5435579316 -0.47109694138 0.18541869411 0.49664217813 0.30967423277 
-0.083445034048 0.40838367053 1.3863431311 0.98376245237 -0.66029726897 -1.5429642043 -1.0333501971 -0.54720271371 -0.54382787169 
-0.31405864861 0.25500520437 0.0087384835336 -0.80481621544 -1.0130693295 -0.60030272343 -0.0093840874567 0.76975399577 1.2685322267 
1.1504760706 0.71956811385 0.23622046489 -0.17272061 -0.30455269491 0.29124170662 1.3286253305 1.174484811 1.5156323053 
1.253738555 -0.048002192985 -1.515419415 -1.8055633604 -1.1880802915 -0.83350398189 -0.97340982731 -0.97453336016 -0.83516288656 
-0.94736507623 -0.57748434137 0.84250950429 1.8859870618 1.6662225094 0.3262379739 -1.3348497998 -1.80727074 -0.66084694135 
1.0588352245 1.5338708902 0.70615908361 0.29584000878 0.53234862675 0.23725273794 -0.94756662065 -1.2757385938 -0.24789005715 
0.18469630264 -0.51865005811 -1.1371573878 -0.85078374528 0.053028900466 0.66483853118 0.55712718793 0.99501581977 2.2750744183 
2.5432061336 1.2682780266 0.12449791559 -0.089527346723 -0.30915505555 -1.069102747 -1.1867956298 -0.38108713821 -0.11001159073 
-0.74542559914 -1.37595023 -0.981006637 0.20869695174 0.89374877879 0.49044070226 -0.57413225686 -0.99293275173 -0.12312154007 
1.2646838113 1.8685362451 1.1553402403 -0.081819338648 -0.85719827222 -0.50766472573 0.33545941433 0.5397964952 0.31294233403 
0.49896649706 0.63091383469 0.30727869497 0.36586286223 0.40893881582 -0.45074731124 -1.394758585 -1.4287104407 -1.0479284801 
-1.113661432 -1.4014302545 -0.95567397489 0.52440377339 1.3152151596 0.96456309433 1.3564675869 2.0702302059 1.0483074392 
-0.91797774691 -1.6604684681 -1.1059466418 -0.55739102844 -0.529175386 -0.35958532691 0.32056170205 0.75912912143 0.90959495452 
0.73694235539 0.10561857774 -0.17046391178 -0.015735416138 0.10173114693 0.13255634544 -0.031017757077 -0.56556500046 -0.67732570679 
-0.48715163422 -0.77792825207 -1.0978218158 -1.1276736127 -0.88332217902 -0.36823097537 0.57554110151 1.2029845482 1.1729372202 
0.88709057982 0.87125871819 1.0562397359 0.69419897287 -0.28764647118 -1.3672930746 -1.7754177528 -1.6800166626 -1.3772164001 
-0.69399352044 -0.1487274042 -0.019992474098 -0.051016110264 -0.20272411699 -0.32882627911 -0.023574089403 0.27527789641 0.24707911128 
0.37659431553 0.85517357951 0.7934864839 -0.29169672623 -1.4461025647 -1.7231683092 -1.3228061183 -0.58942935018 0.23817114542 
0.5615225284 0.38393096468 0.20148927665 0.013584648445 -0.14312382966 -0.086279513275 -0.26593650251 -0.12887048441 1.3932453946 
2.9742349086 2.8010549049 1.2836215288 0.0079063563404 -0.36647765585 -0.35590108677 -0.45806678829 -0.42603616665 -0.1739020519 
0.0099154223494 0.34726489408 0.51711360279 -0.026865201499 -0.11105797749 0.39352080214 0.82342985677 1.1574527899 0.96066513972 
-0.24046414602 -1.4360099688 -1.5131913059 -0.87696604995 -0.49966143704 -0.63223623615 -0.15893069646 0.70713606209 0.96316932656 
0.6032481375 0.069969358804 -0.074352893681 0.050934814906 -0.048999640833 -0.41998406274 -0.69097188964 -0.16708841009 1.0118307113 
1.9164673935 1.9863643935 0.94985180899 0.13821368943 0.36979905979 0.23326313545 -0.18998537899 -0.29727389959 -0.4685717886 
-0.68205486183 -0.98434641448 -1.0966703842 -0.29258222092 0.80990382458 0.82177625754 -0.074357820936 -0.58241305263 -0.20145566937 
0.20550725249 0.085333171174 -0.20557537454 -0.45767098394 -0.56023513957 -0.80790127587 -1.3854768055 -1.2877056548 -0.51803302584 
-0.29776963536 -0.96555917726 -1.1333021205 0.018597514995 1.0658022956 1.3074338361 1.4528075729 1.6311568692 1.2310658245 
0.70799571727 0.67360903159 0.47249416057 -0.49004218013 -1.5220229672 -1.3487934475 -0.24214496238 -0.30645785001 -1.1787651446 
-0.84000218441 0.35130655658 1.1512672955 1.0719067312 0.34339318206 0.33518535388 0.68870973148 0.14923095802 -0.8839603668 
-1.3742171537 -1.0504298254 -0.7809412836 -0.43090356185 0.40783966195 1.1121361619 0.50580570112 -0.81516485123 -1.2610122499 
-0.78261276582 -0.23609224913 0.44478931689 0.97809643686 0.93779608202 0.83124723867 0.92359285921 0.77225888793 0.18576857374 
0.030002157513 0.55156581948 0.27461984991 0.78253718753 1.2870111649 0.47979457801 -1.0536466592 -1.4689155633 -0.93163814059 
-0.52959734042 -0.65146078685 -0.90241055171 -1.1229243892 -1.2041335581 -0.3707638763 1.2287154976 1.9955073873 1.4310693442 
-0.016985445346 -1.0928182641 -0.84279644244 0.13743470888 1.1148527925 1.2196838496 0.53353470438 0.14264350824 0.2359106704 
-0.052823959695 -1.1731240452 -1.4667224346 -0.41907584943 0.17009344151 -0.20198584134 -0.78369341934 -0.7529077101 0.04153582749 
0.35069204615 -0.1098370208 0.24686710267 1.7623307983 2.6952844783 2.0224794696 0.84422996208 0.19781894838 -0.38342633363 
-1.4416522535 -1.7975250911 -0.78211407782 -0.055254048143 -0.56645234821 -1.2564972011 -0.94443640018 0.10147438244 0.68802315521 
0.24974600746 -0.82893325566 -1.3325316261 -0.49302279404 1.2569256897 2.2431970281 1.6363537303 0.39393849607 -0.50872948906 
-0.53899623655 -0.042368125877 0.28859877229 0.22138073777 0.23093932404 0.59044281211 0.68394056013 0.42571133956 0.022232123913 
-0.44512828684 -0.96891329825 -1.4168390547 -1.4130848654 -0.88714287391 -0.25154925534 0.20080752737 0.6268300521 0.37748428156 
-0.191300492 0.50052032446 1.7772572977 1.4402733702 -0.28235510382 -1.3791296886 -1.0786189851 -0.29027158427 0.0048182250964 
-0.15485489343 -0.21489507672 0.026836330938 0.50903398963 0.67616121784 0.54555858197 0.33326891281 -0.041391417288 -0.0018736332149 
0.25206863283 -0.043001785843 -0.9341256142 -1.2625344345 -0.67254810829 -0.27224973723 -0.3670020603 -0.56614585862 -0.71121570344 
-0.59720144308 0.15253849241 0.79181955821 0.7948313368 0.57853307027 0.8386820791 1.2592996235 0.806718476 -0.33709180688 
-1.4963010893 -1.8015109971 -1.4316213163 -1.087081285 -0.42476390848 0.093872246376 0.00055406479516 -0.093593923672 -0.36594341225 
-0.76794336081 -0.3102305875 0.45325391945 0.69926340103 0.62839001265 0.49897443068 0.29455895816 -0.24671357322 -0.98629097372 
-1.4580694565 -1.4160335302 -0.64414544938 0.41451570787 0.78735874646 0.37906473207 0.046644656295 0.28466063178 0.5914642163 
0.33624787991 -0.52093187381 -0.5270736676 1.2365200787 2.7569003031 2.4892365546 1.2161107299 0.21711729747 -0.1961312197 
-0.43219497603 -0.6772806177 -0.46324096062 0.21524267044 0.35495158925 0.12051900536 -0.047436992441 -0.41907340981 -0.24392711362 
0.27705025363 0.69030895259 1.1629433564 1.2653197801 0.25587921957 -1.1048775184 -1.7618325997 -1.7511415517 -1.3024418041 
-0.89056420404 -0.25949243889 0.60374392959 1.292119674 1.4178561514 0.88533541843 0.42926010468 0.20965286553 -0.12612450501 
-0.59819054866 -0.63753536546 0.30039725787 1.5613473662 2.1530555478 1.9005071492 0.7608163829 -0.063856532758 -0.037832633056 
-0.26215296678 -0.47771278801 -0.2579740462 0.064045001376 0.14217421483 -0.40475444135 -1.0270272858 -0.44833951466 0.80164208714 
0.86224354745 -0.37123545064 -1.2725665637 -0.84350228901 0.054319711604 0.18382402089 -0.15893386062 -0.32836902861 -0.50258417811 
-1.1968668019 -2.1261483705 -1.8880264027 -0.83516262243 -0.33929402795 -0.62477453312 -0.48494768895 0.72232423152 1.5317098946 
1.3447449311 1.3396736235 1.6357242804 1.3021669337 0.67741730418 0.70285380388 0.80087442533 -0.088484160466 -1.3876246688 
-1.5114975015 -0.64962684661 -0.97246370331 -1.998130358 -1.6460807063 -0.007382432451 1.3898528063 1.5561739539 0.82799946872 
0.53478889471 0.37804605905 -0.13012603048 -0.6006064878 -0.87544525037 -0.99150424371 -1.2165849586 -0.58455537625 0.71973167564 
1.3054933688 0.73182824147 -0.49119564394 -1.0651357315 -0.66384078243 -0.40759584922 -0.10239675653 0.64491083062 0.95150501509 
0.79961739202 0.9043818519 1.0197165788 0.57950064793 0.12954460699 0.092001882359 -0.16507678995 0.11730524728 0.84295502592 
0.58704083214 -0.52361409524 -0.89243531603 -0.50198607452 -0.15861390379 -0.40959055426 -1.0240358504 -1.4904660754 -1.2219685023 
0.053671760577 1.4760958436 1.7024459556 0.8926680247 -0.11094097288 -0.16338442689 0.69252449268 1.1506939901 1.1749083881 
0.74577746614 0.1060665043 -0.26469678755 -0.37094697936 -0.53393670847 -1.2921745407 -1.4599193425 -0.47816674787 0.16672694437 
0.12254111104 -0.11108429429 -0.1293194269 0.11571906908 -0.37257958311 -1.0954733255 -0.38146308485 1.4367977427 2.5501156549 
2.2308836286 1.3281050349 0.49045531122 -0.530725506 -1.7429857309 -2.0781741452 -0.9678128657 0.23397589749 0.0033453824546 
-0.99330253377 -1.0230295195 -0.15564615789 0.37985362001 0.044661547049 -0.9821407945 -1.467222904 -0.50718214498 1.3407678269 
2.3068780699 1.767460832 0.71220336379 -0.12104347641 -0.57258401345 -0.68755587937 -0.33972829866 -0.14793409449 -0.054316123689 
0.74988695833 1.1246523616 0.49560782374 -0.072768839754 -0.18464321714 -0.59151601351 -1.4065432853 -1.6211255073 -0.71398929899 
0.44579925765 0.75749598087 0.48330345805 -0.082406017255 -0.42015372303 0.29996105087 1.5500359119 1.4909940245 -0.20217372384 
-1.382302075 -0.93005750156 0.035885465772 0.29203597433 -0.31370369562 -0.89512700012 -0.61989304107 0.1130019953 0.45819998448 
0.90956505908 1.0286090708 0.23369231678 -0.11424703866 0.026522053963 -0.24566894263 -1.1480276198 -1.6428024263 -0.92147106943 
-0.035378756578 0.15094148762 -0.11821477503 -0.4088103008 -0.426997858 0.073570661043 0.58735836804 0.44177904053 0.094042675689 
0.59662389204 1.2383790125 0.83493980617 0.006576490381 -0.73183383815 -1.0307857922 -1.0646153452 -1.1686330022 -0.49211093943 
0.061022712392 -0.31822699966 -0.59170539142 -0.77344111053 -0.97693638452 -0.31951504831 0.6817142134 1.2531728919 1.1340603051 
0.33655552301 -0.08450106519 -0.12308626781 -0.59009246409 -1.3381353893 -1.6396740516 -0.89976337993 0.31014877014 0.85032514555 
0.5176687912 0.16756575473 0.6743035961 1.2750211487 0.6732420188 -0.574433156 -0.57271905137 0.95731686227 2.0385081884 
1.6498329569 0.76664139725 0.37977462212 0.23145544097 -0.22986057695 -0.74924076008 -0.29075167828 0.87107457918 0.93130665786 
0.065114765103 -0.52118466624 -0.69565531446 -0.46021073269 -0.19961665914 0.15830373269 0.78319502659 1.2151923542 0.64644233907 
-0.73975658869 -1.9877569629 -2.3867347615 -1.7121742281 -0.74530223657 -0.079365414723 0.37600108343 1.0988451641 1.8979477169 
1.8495049406 1.042744766 0.32771034457 0.016121786149 -0.27001969573 -0.21259403876 0.60023571096 1.3937489438 1.4994342288 
1.262974707 0.77310582983 0.26428308472 -0.13090277815 -0.48565908574 -0.38799851075 0.014791647258 0.57428891867 0.94370258077 
0.36226341208 -0.78360484729 -0.8719815221 0.21698537378 0.63758018162 -0.44569158858 -1.492735662 -1.262801453 -0.39621510974 
-0.051590632345 -0.24297665647 -0.34085322804 -0.45961285951 -1.226204564 -2.3974953251 -2.256828847 -1.0132859466 -0.31896650061 
-0.41510321702 -0.097048891513 1.0135139213 1.5568157198 1.1739896558 1.1851668044 1.6002262344 1.4047793889 0.88376504368 
0.81374852415 0.76094074093 -0.035904756435 -1.1593313481 -1.3228758539 -0.70607001043 -1.2640364012 -2.4646360534 -2.2871581258 
-0.49815078449 1.2825826697 1.6764804521 1.2564040252 0.95474345184 0.35101831634 -0.2755702403 -0.40010815435 -0.45860778405 
-0.71767536701 -1.0470039018 -0.43200085338 0.58752965291 0.80503532939 0.50034833901 -0.31233938398 -0.94272915846 -0.69731349477 
-0.60399530509 -0.40312694809 0.69715882977 1.2686935147 0.69508053104 0.40870120804 0.75068282775 0.69865810628 0.28756378787 
0.010941400702 -0.48817767307 -0.31299376938 0.29245178678 0.37171181194 -0.023402382059 -0.16151443947 -0.047295169161 0.076228309365 
-0.16620815019 -0.94161374039 -1.6264616329 -1.1147159772 0.32408012843 1.2639751302 0.94856051969 0.33023967724 0.26404033607 
1.1001771675 1.9984364538 1.7915343751 1.1974932107 0.55014114707 -0.11644833396 -0.64768202184 -0.87709697318 -0.80730529598 
-1.1935289954 -1.2690738413 -0.46756316445 -0.11738847015 -0.24542838136 0.019100966773 0.50232598225 0.53903587526 -0.59647753369 
-1.5867901981 -0.62663726367 1.2557537005 2.1463290854 1.8610672955 1.2392952786 0.52193161452 -0.49601681589 -1.5181255653 
-1.7862359906 -0.94928992744 0.34642998538 0.38460327314 -0.76034979796 -1.0227450639 -0.33723753898 0.1622397262 0.0090090480364 
-0.93450254911 -1.4181880322 -0.46794655113 1.1288899917 1.9865936204 1.7010500511 0.86681683745 0.069903075396 -0.68227298174 
-1.1915819967 -0.83885622507 -0.41824493947 -0.15422546503 0.77789996944 1.1465391789 0.58094068075 0.11455951831 -0.10616274905 
-0.46919740881 -1.1046926723 -1.3342130395 -0.60781915433 0.40161434632 0.69844599722 0.4560904053 0.10231975777 -0.0037688413513 
0.49824395478 1.5093772319 1.4530837056 -0.47394789211 -1.6037788962 -0.80971850552 0.14472979938 0.19321801503 -0.52589312215 
-1.2048598722 -1.010778882 -0.292600263 0.17573283189 0.9278379508 1.4410428728 0.85262169832 0.071568724072 -0.39212507317 
-0.70858285675 -1.3060178006 -1.6229584226 -0.88595110457 0.13407452987 0.46874642426 0.13846836085 -0.20930109695 -0.17748237356 
0.10350419967 0.40613385524 0.18280515005 -0.2462781753 0.28521310636 0.88491465702 0.54622501326 0.34855983626 0.50120037535 
0.26003238212 -0.59906377448 -1.4075871069 -0.775375106 -0.12293456239 -0.63223349917 -1.0909769253 -1.1308831933 -0.99799991182 
-0.21312923868 0.87371172334 1.609652994 1.4401525058 0.2751733725 -0.38178889671 -0.27859601794 -0.46481458698 -1.021119185 
-1.2906050874 -0.6935738662 0.21516370527 0.51090985921 0.33270865939 0.2757592733 0.95552384153 1.6411233779 0.91663709281 
-0.42181320502 -0.48591892209 0.59809485891 1.251519096 0.86403748347 0.32796607337 0.36000853294 0.5214527875 0.2197904179 
-0.3140772462 0.13210613421 1.2301957912 1.1861021885 0.025565533203 -0.94094483098 -0.99393574438 -0.58747621594 -0.42253817391 
-0.21809645926 0.32540800721 0.81220539402 0.55218298331 -0.62468140602 -1.9847467088 -2.4163703437 -1.7837107527 -0.7599110266 
0.15021921969 0.59610225266 1.0975620169 2.1234580874 2.4447940643 1.3093159973 0.11605516138 -0.063363271448 0.14217728707 
0.40154285833 0.71466756327 0.63095985307 0.2668114659 0.44637135131 1.0721654899 1.1029077153 0.31840455891 -0.2576111739 
0.0073227722166 0.43068527179 0.79386972901 1.075836472 0.65167722159 -0.49104054561 -1.0372563193 -0.45354421044 -0.0031776566719 
-0.6466038587 -1.401428104 -1.3080617458 -0.63480507518 -0.13992921974 -0.26720706507 -0.64479048531 -0.79159472801 -1.2300669665 
-2.2654770329 -2.2598429562 -0.93500704538 -0.021386588444 -0.08062349232 0.093537859427 0.9222516357 1.3701767073 0.91727415755 
0.67425160198 1.3261876377 1.7263159999 1.4346816853 1.0234611674 0.48147819721 -0.33500935184 -1.1575781329 -1.2544772258 
-0.79725567475 -1.2191368085 -2.1884763431 -2.1265886834 -0.66964030964 0.97643321482 1.5348841968 1.4538821412 1.1356860567 
0.11683787139 -0.75056061895 -0.56801208405 -0.093720698113 0.017329531295 -0.055040810329 0.16145258318 0.3851374158 0.22686807832 
0.061678971579 -0.48704512081 -1.1263506977 -0.98287530717 -0.81286509015 -0.39356564927 0.83709752934 1.370244373 0.69060815907 
0.30894288593 0.60827883538 0.52447670946 0.032612431854 -0.3016465304 -1.0087942351 -0.64957265339 -0.054567613773 0.24790329515 
0.40033755473 0.43755021721 0.24968449255 0.18410562128 0.18201912081 -0.43119431769 -1.1914501673 -0.91808966232 0.030557901576 
0.41411900648 0.073805459747 0.19149524625 1.0560719548 2.1777149028 2.5266439414 1.6927606 0.95458388358 0.56673174501 
-0.0080016899715 -0.70981515436 -0.94177953194 -0.76527592269 -1.0766574298 -1.1372781759 -0.44174802844 -0.47648502167 -0.93641959763 