# vtk DataFile Version 5.1
vtk output
ASCII
DATASET STRUCTURED_POINTS
DIMENSIONS 256 256 1
SPACING 1 1 1
ORIGIN 0 0 0
POINT_DATA 65536
SCALARS volume_scalars double
LOOKUP_TABLE default
-1.576370366 -0.41364867677 0.87808571898 1.5692988996 1.4363177281 0.81464386461 0.25072854672 0.080771319586 0.23949773566 
0.53110638179 0.63942798954 0.27075319216 -0.43815918055 -1.036497637 -1.2541960733 -1.2551166054 -1.1151218779 -0.86784403157 
-0.82537146256 -0.88443360776 -0.66006459259 -0.11004025798 0.64921857542 1.4298561944 1.8496437979 1.6832110656 1.2230440636 
0.7414524966 0.41548360829 0.33045476051 0.14354695059 -0.19026608662 -0.20468765814 0.10088624809 0.23382550096 0.061985290683 
-0.16299711085 -0.17216526117 -0.02177287291 0.052483389127 0.23348061837 0.73953138215 1.3139742951 1.4817670942 1.3254725676 
1.3073596844 1.3811467546 1.3322142135 1.2073514032 1.1218559205 1.1232858217 0.99760152186 0.75508734548 0.50660198753 
0.092098377485 -0.34400329476 -0.3139239551 0.22423455683 0.68800526992 0.52450361469 -0.14124952079 -0.66556318808 -0.85464814819 
-1.0086170913 -1.1274306383 -1.0557256498 -0.81557058992 -0.30590153862 0.41423409885 0.95092499256 1.0464830318 0.59950134257 
-0.081888619189 -0.41918902552 -0.45786823457 -0.74476434547 -1.1766126447 -1.195083403 -0.7417494959 -0.28788980611 -0.14324312731 
-0.049933560097 0.086274558808 -0.080516316251 -0.45178813437 -0.68863883051 -0.62683381395 -0.33067696331 -0.15083677658 -0.028408068324 
0.2084997058 0.42677189707 0.54815949399 0.5180909146 0.43186267363 0.3599245459 0.035127256499 -0.37068523892 -0.20780728067 
0.50545326851 1.0780178085 1.1873382735 0.86320131386 0.18522182185 -0.49705023142 -0.94472892492 -1.2468295374 -1.2581408783 
-0.7982628423 -0.32894692478 -0.24591615501 -0.16481976165 0.24147067173 0.62968918941 0.67649358345 0.42710618232 -0.092411398101 
-0.73417630453 -1.0593836037 -0.93919966955 -0.79782638868 -0.84889373224 -0.7926958866 -0.53679465494 -0.4887233915 -0.69703180268 
-0.44138520709 0.55067626121 1.6997269961 2.5357693988 2.8595524655 2.5723181632 1.8759714207 1.2626889372 0.96857179088 
0.75513131059 0.27615137138 -0.39476829933 -0.80036434942 -0.8472104168 -0.79489805981 -0.99241819463 -1.6167423715 -2.3581955195 
-2.7717448884 -2.4744856451 -1.4752762525 -0.3531401854 0.12781662252 -0.094301144066 -0.31469035562 -0.23530220957 -0.048572220512 
0.15910154995 0.19796506845 0.030308229578 0.057720333764 0.35317838545 0.40341805564 -0.092150466656 -0.79940153828 -1.275145553 
-1.3894403653 -1.3533084242 -1.2746250402 -1.0502733173 -0.73148700042 -0.43601567997 -0.26748904929 -0.2529721207 -0.41910057774 
-0.74063418114 -0.94258909467 -1.1128584924 -1.4618724774 -1.6397461497 -1.5142534553 -1.4005087285 -1.320744878 -1.2506519514 
-1.3505061072 -1.6374369449 -1.8559972702 -1.7304734907 -1.2902700879 -0.78973210234 -0.32450405369 0.29241207705 1.2194317042 
2.1238826375 2.3924090855 1.9526531693 1.3858791545 1.1629980716 1.1460482584 1.2071922096 1.40467775 1.4475448343 
1.4274228057 1.6945303642 1.9872296381 1.9354248825 1.638221339 1.4895027315 1.5297319094 1.431688541 1.0340182443 
0.42267339773 0.018778083528 0.14309923888 0.33747435228 -0.003082830032 -0.5547393881 -0.86603742465 -0.96167114478 -0.71929048828 
-0.30189974447 -0.19188368908 -0.21932280633 0.063069774256 0.36865853326 0.19363582523 -0.23740566643 -0.32749519389 0.11233878684 
0.6879502339 0.98933310652 1.0427714086 1.0301104458 0.80111443427 0.19812169807 -0.4345937767 -0.68677768808 -0.40229270043 
0.22251439115 0.65169428462 0.62319829939 0.36063483824 0.10693384578 -0.17870706587 -0.54060100512 -0.95451561407 -1.233870776 
-1.3223338178 -1.5116102532 -1.8295143169 -2.0458515761 -2.0349257677 -1.7714040119 -1.3329556171 -0.76097071786 -0.33560226228 
-0.61806827435 -1.4272789135 -2.0117874648 -2.0931531069 -0.29583079842 0.72901178855 1.4974363425 1.5507785285 0.92522083667 
0.18939914447 -0.24551251674 -0.47926153782 -0.57049797822 -0.31643528047 0.2013837193 0.48236088614 0.2088874725 -0.2300972157 
-0.28036557275 -0.072276417437 -0.041592579705 -0.25190802615 -0.63394635902 -0.97869656208 -0.85370810166 -0.12644861262 0.70816896058 
1.2161890468 1.3458110286 1.1892582223 0.96303543594 0.68575135079 0.43927906931 0.46710103723 0.54517789811 0.48095583247 
0.38744345228 0.12817958469 -0.36153939905 -0.82403799352 -1.0764682448 -0.90204753308 -0.39996637073 0.051426174492 0.34587779133 
0.58629473691 0.84199971827 0.98096478381 1.0396419552 1.1035071898 0.99847027781 0.67245072869 0.25828984621 -0.00016854681205 
0.071479344308 0.21379817322 0.24458771262 0.17292475282 -0.10218821604 -0.38760010426 -0.34595826435 0.03348141882 0.39425607261 
0.48922805593 0.32857284716 0.079254926012 0.027711470092 0.098825063627 0.0060578003209 -0.17895997878 -0.23168875931 -0.0080705820302 
0.43877906745 0.79203614729 0.69678695798 -0.076905610081 -0.96373347341 -1.2099223312 -1.1501866205 -1.4335411149 -1.8163257631 
-1.7881967106 -1.1772485971 -0.2954240084 0.35949718903 0.69287383726 0.51777224146 -0.26504813803 -1.0214577406 -1.220543072 
-1.0388860267 -0.78269318529 -0.64940060965 -0.49006404641 -0.13373422013 0.22322517296 0.41105966874 0.28337778383 0.18550179316 
0.55238109313 1.0217850581 1.185746096 1.2466564426 1.3451422396 1.3651636472 1.3696120833 1.2084669082 0.78751535603 
0.33375126626 0.0084287398708 -0.34180376898 -0.71632794062 -0.7218930513 -0.35989903034 0.054117017631 0.37944878353 0.7121231309 
1.1003713844 1.1516201768 0.57659896421 -0.15183299094 -0.5919447903 -0.82446063632 -0.96706253274 -1.1459914444 -1.3506711764 
-1.5365397051 -1.743952797 -1.7159196763 -1.3086361628 -0.68425119952 -0.092761138327 0.43571124407 1.136641103 1.8113841244 
1.8837411105 1.2292795365 0.42580874562 0.037630726215 -0.11629155694 -0.31099741241 -0.40592720099 -0.41180854318 -0.42952124643 
-0.41776578396 -0.44453175816 -0.71883791461 -1.3443366391 -2.0660866398 -2.2959494957 -1.6623317959 -0.69922841022 -0.23779744789 
-0.23932169516 -0.16250893962 0.085056528403 0.3655769236 0.67679340892 0.7497576726 0.31910632863 -0.19446818525 -0.34341746218 
-0.48414165454 -0.9367959601 -1.2777491791 -1.1649753752 -0.74734732735 -0.46966091735 -0.56934941414 -0.84803833945 -0.98797404342 
-0.84973912719 -0.65463567936 -0.57830109722 -0.46736796312 -0.42951063992 -0.68605013186 -1.1208246619 -1.5525461148 -1.7084964925 
-1.4773891563 -1.2491991854 -1.2245850258 -1.4309454643 -1.8565386375 -2.1244321777 -1.9227068417 -1.4511755802 -1.0334746933 
-0.70396694113 -0.13937472176 0.74687180514 1.5597783798 1.9615102091 1.795355333 1.307005175 1.0107727547 1.018011228 
1.1499261494 1.4191857407 1.782442166 1.9208396463 1.7955114937 1.7516865205 1.770127642 1.6835738355 1.4447382512 
1.0657410926 0.68103447206 0.34898754534 0.079382819608 -0.10846283504 -0.052701673096 0.21553659791 0.25496888402 -0.20839963078 
-0.67281068979 -0.64365683078 -0.28311792477 0.048205686359 0.064576449726 -0.1620686699 -0.19519562318 0.15130054048 0.25033847319 
-0.32033687699 -0.94819775989 -1.1574427941 -0.95930884632 -0.45529878453 -0.038522291459 0.036161741215 0.030347654681 0.091286166508 
0.052701283446 -0.11604454935 -0.1983080849 -0.015067250108 0.236781669 0.12159221855 -0.46115481767 -1.0914345292 -1.485762812 
-1.4870508844 -0.91429213525 -0.060930987654 0.48059155133 0.39064645932 -0.24225983734 -1.1270162907 -1.855032247 -2.0574924802 
-1.7220655056 -1.199235212 -0.79728845928 -0.74415265618 -1.039293944 -1.2862938967 -1.2810919127 -1.014980847 0.46614887875 
0.70193694817 0.84079799518 0.80560883903 0.51643085392 0.24289796803 0.16154218149 0.060910319239 -0.1007230612 -0.1617281257 
-0.017019722878 0.21207894238 0.24785826027 0.27250966895 0.59279402168 0.97427250059 0.92209311371 0.31789743303 -0.48193487522 
-1.0261322016 -0.86787497063 -0.025653817337 0.67078070442 0.76149143484 0.6949091846 0.85213885937 1.0225861189 0.93463208962 
0.72393231331 0.65255479566 0.70705122974 0.6522471008 0.31647143301 -0.34231607942 -0.95006980527 -1.2450632092 -1.2696908022 
-0.79332701283 0.10424708307 0.87766255204 1.1595880956 1.0397235195 0.87343476743 0.84767945636 0.85385785602 0.73944669441 
0.45928731327 0.13231634086 -0.27469450262 -0.74152502087 -0.81940904663 -0.43264700308 -0.095092416305 -0.074573447507 -0.31699723684 
-0.61587067344 -0.75683643285 -0.57269401602 -0.14998463182 0.30117631323 0.62537485482 0.73938259683 0.88581208989 1.1212928065 
1.1223550993 0.86741720013 0.57114701998 0.27358535908 0.117519022 0.15807672866 -0.019651685075 -0.72791182454 -1.4336982473 
-1.6005370592 -1.5563035642 -1.6042421489 -1.5327175505 -1.2628091965 -0.85428500268 -0.4196832319 -0.091490773952 0.22550344629 
0.25788466624 -0.32493793621 -0.97852984268 -1.0220116764 -0.72085910401 -0.55791388946 -0.5074831447 -0.35146888405 -0.061610583669 
0.22433657287 0.45032794047 0.45676452836 0.38220466846 0.68292797741 1.319344156 1.7013487988 1.5528269321 1.0566539221 
0.65893059513 0.75439372382 1.1088009261 1.2969498011 1.1405822417 0.87668016138 0.62959817214 0.20060154816 -0.1462993003 
0.093897992154 0.80111413292 1.2386785167 1.2365007969 1.2094811181 1.0668474289 0.38988902704 -0.42779420868 -0.79815222633 
-0.87941052401 -0.91754032928 -0.99908677384 -1.0423156992 -1.0602023107 -1.2630710085 -1.4079269992 -1.1999511382 -0.90949382496 
-0.81288261224 -0.68132271162 -0.21403176483 0.36785184743 0.45729043888 -0.12626645642 -0.84443169693 -1.0721033322 -0.82985303447 
-0.37827790126 0.064253676466 0.16272148868 -0.020181389784 -0.28177665262 -0.45200391782 -0.35704490517 -0.36063207608 -0.73231680795 
-1.1196314357 -1.0621109851 -0.67694301135 -0.30659113788 -0.0078565308623 0.24172901359 0.47811148264 0.66367450972 0.73647828268 
0.59727514147 0.080560693217 -0.59267083395 -0.89678815535 -0.88429931325 -0.92989390243 -0.93314421527 -0.62546380201 -0.05296581707 
0.39623860689 0.41451430593 -0.050043334552 -0.61321083113 -0.87735793967 -0.93160043083 -0.97857560526 -0.82201903958 -0.39249488949 
-0.20633760328 -0.38599179933 -0.54740842835 -0.51873441973 -0.48581514894 -0.73076118209 -1.1731933385 -1.5791286061 -1.7757200126 
-1.510510956 -0.8455882332 -0.2230640509 0.040855358217 0.10783959195 0.44837597232 0.92914617863 1.0050208023 0.77657687945 
0.53641838293 0.33423653365 0.17658223407 0.11133725815 0.33763106215 0.90693913114 1.4922878548 1.7837777763 1.6437117271 
1.2999535065 1.088696215 1.0334415655 0.86350647516 0.29669702464 -0.44230956423 -0.8755942868 -0.94381317569 -0.85098208149 
-0.64018937852 -0.42346582049 -0.44746324842 -0.68800923806 -0.7329491871 -0.29780225592 0.35350588589 0.59981948756 0.18805453223 
-0.3588446585 -0.36836696599 0.13922503022 0.45088527447 0.25271238194 -0.22088064651 -0.83895088147 -1.2773368049 -1.2571336751 
-1.1438353941 -1.1037355985 -0.84275675633 -0.36099352673 0.1044662651 0.36765419927 0.47256035042 0.39277113141 -0.12316081714 
-0.93972051616 -1.7381458602 -2.2819313784 -2.4517856091 -2.1295773398 -1.2156278287 0.092092875282 1.0610296662 1.028069734 
0.20791440787 -0.78752780081 -1.5573015991 -1.8227978372 -1.5428125465 -1.1604146772 -1.0393590483 -1.0311350294 -0.6712838416 
-0.078379443665 0.20118776655 0.26316023258 0.070936870753 -0.51873803013 -0.56471042504 -0.15633792049 0.15025394958 0.29620410296 
0.47346455567 0.61812267172 0.70017268153 0.71792746918 0.627777698 0.44840542763 0.37578746911 0.6923680473 1.2017532039 
1.4607036224 1.156406754 0.34868590589 -0.37339087316 -0.57782436765 -0.25360280839 0.3547132557 0.78696256818 0.7911120708 
0.80120520166 1.1599429589 1.3450078349 1.1437912855 0.89000765473 0.66521260905 0.48979267306 0.22211982171 -0.30188789024 
-0.78328456202 -0.82559747598 -0.69083463214 -0.72242027193 -0.63862004326 -0.031256144337 0.82019023051 1.314327082 1.3180822277 
1.1315946247 0.97680534745 0.67058080892 0.25478425431 -0.017560256783 -0.19988762487 -0.4560972213 -0.76792151207 -0.77841783171 
-0.42713850673 -0.24473714375 -0.47617968696 -0.92325965513 -1.3798990034 -1.6530142601 -1.5046585505 -0.92086546118 -0.24436841051 
0.25073509513 0.52209239144 0.69767539216 0.86838448754 0.92314910761 0.7492324869 0.34837320975 -0.12534793841 -0.41432066985 
-0.57515181469 -0.89400388625 -1.2769653016 -1.526081049 -1.6857927651 -1.6755463781 -1.1968602125 -0.26930380479 0.62693536387 
0.84588330486 0.26782539801 -0.5298083746 -0.89607068573 -0.75706636992 -0.5750368352 -0.62724447241 -0.66802363247 -0.50496712342 
-0.27853545149 -0.052273484357 0.1068313845 0.087358363898 0.03919720241 0.18363166389 0.38465428716 0.44028563194 0.51324806411 
0.79319455743 1.0889666082 1.04523839 0.5505808767 0.079188104876 0.17328499597 0.79060418956 1.4068313717 1.6085334897 
1.5184800959 1.2813110243 0.82850115091 0.32258201798 0.18423667387 0.53286816552 0.84323385575 0.81757040162 0.61712749174 
0.30342730006 -0.34220626494 -1.2031016307 -1.6576503548 -1.5145540073 -1.1086004752 -0.77525765844 -0.5491825393 -0.28665682774 
-0.15236252372 -0.39413726475 -0.66753742289 -0.70056128928 -0.60837181125 -0.48952048646 -0.45945934611 -0.58154356962 -0.89505172878 
-1.2960094791 -1.4949088454 -1.3161830605 -0.77881320762 0.013695791388 0.62779522395 0.59191359558 0.16184247577 -0.21360960161 
-0.2865297791 0.031500369242 0.22746884983 -0.042989003214 -0.31971014547 -0.30820254859 -0.125434536 0.23724170643 0.54984118751 
0.54478141127 0.48001315413 0.54866632331 0.53349032923 0.36047950225 0.045450742797 -0.46013073158 -0.8776947642 -1.0288768524 
-1.0107188455 -0.82342578939 -0.43875397659 0.091217203136 0.63688492514 0.9692121221 0.84746886218 0.45377032162 -0.037883328968 
-0.64777799644 -1.2946050201 -1.6154541261 -1.236158368 -0.48759947581 0.12867790003 0.47500376345 0.57244293011 0.34493455993 
-0.2458233591 -0.92247098702 -1.2142538717 -0.91972791102 -0.22066422073 0.52447653711 1.0637085746 1.2817531631 1.2418362376 
1.180601499 0.93147780771 0.33005344332 -0.17613832196 -0.26739542884 -0.10579218992 -0.015774757005 -0.10893853091 0.0048872082409 
0.59322308857 1.2480915729 1.5079548457 1.1621079711 0.47029447536 0.15156419344 0.29582671986 0.35613474286 0.048970242737 
-0.41315903289 -0.79530916252 -1.1543020184 -1.4733481819 -1.6599741873 -1.6397399825 -1.383281929 -0.9474976796 -0.28931820967 
0.57448782548 1.2350961894 1.2008796749 0.59510131515 0.10684142755 0.21038350977 0.67682162949 1.146815038 1.4150644513 
1.1480149855 0.34932726755 -0.42410316699 -0.92922429884 -1.3755900882 -1.6756061805 -1.5261689844 -0.91790516121 -0.10853986274 
0.4779352389 0.62002886636 0.22198786705 -0.72775454298 -1.5695660577 -1.8957649356 -2.003382754 -2.0824496299 -1.940222232 
-1.3115651684 -0.25752106862 0.63208532202 0.77664868722 0.30918244685 -0.23052633166 -0.61443401207 -0.8437485935 -0.92053499859 
-1.0157195319 -1.0723564704 -0.67202025329 0.30748764096 1.1932018064 1.2944803833 0.77999246372 -0.46819721034 -1.4022494713 
-1.6128702821 -1.0962956795 -0.56288358318 -0.25111816627 -0.020069628323 0.20493271167 0.50345510388 0.76193567271 0.72605350819 
0.39699596481 0.25651509009 0.57620949844 0.94968242822 1.0132387772 0.67493447427 0.26697486525 0.41245977736 1.0008130199 
1.3898925585 1.4124027872 1.3878154583 1.3801845198 1.3171154973 1.2773724444 1.1435479984 0.89978150881 0.67503481288 
0.49198247463 0.46734778399 0.52510814499 0.36903962425 0.23856521289 0.31248777279 0.18386003765 -0.30326821135 -0.87301455413 
-0.92787205819 -0.26265108582 0.54386963855 0.94594075643 0.98451468317 0.80052932266 0.28858040683 -0.30366498937 -0.53350485241 
-0.55775028158 -0.58841401324 -0.56768151856 -0.5095659591 -0.49475021384 -0.6294865739 -0.93334693252 -1.3300124988 -1.8191306446 
-2.1387821978 -1.9474501657 -1.3718728057 -0.75836012606 -0.30564490645 -0.12806696445 -0.22925219583 -0.3604570785 -0.34871652725 
-0.45232350762 -0.73242747692 -0.76205544524 -0.62559270384 -0.85783067626 -1.2413409698 -1.1621424284 -0.95507900555 -1.1611017563 
-1.2842827098 -0.55364525478 0.80225934763 1.7533804906 1.4985842223 0.27964583979 -1.0285446376 -1.754802435 -1.6414961943 
-0.97442371123 -0.45699929354 -0.39505894011 -0.34872839092 0.033748062838 0.51828017932 0.54155536301 0.022283883295 -0.46544981082 
-0.59455730798 -0.36835993099 0.014810138059 0.12846332641 0.058896236905 0.19108689357 0.32412467411 0.077855575043 -0.44283146189 
-0.73161679092 -0.3700093223 0.35703374494 0.96616680652 1.2323087605 1.04520036 0.56318152088 0.042141765594 -0.3707688597 
-0.5945798296 -0.62595848167 -0.49481117966 -0.3917311569 -0.52098439612 -0.90403893489 -1.3830675613 -1.5229153305 -1.2111868597 
-0.77894413188 -0.38874390794 -0.14127928003 0.028364546318 0.14303051423 -0.14896055677 -0.62908426655 -0.72010834478 -0.41243652602 
-0.1193861675 -0.26541180057 -0.80260237265 -1.1902157942 -1.0999079805 -0.74765819274 -0.50691296633 -0.31507451357 0.051947971327 
0.42630279551 0.45617904021 0.15209961995 0.0074141029367 0.40247924886 0.98523862365 1.0580589349 0.58574825131 0.28416904625 
0.30912545865 0.3281890478 0.41823517244 0.59240367079 0.62423812921 0.49543029932 0.36725470664 0.2700159587 0.30290300463 
0.45559231174 0.32943097608 -0.14405619244 -0.6303404712 -0.83136055526 -0.75470537729 -0.60881695226 -0.43920982258 -0.095318015323 
0.38146817605 0.71563140484 0.70519751344 0.13254964817 -0.81679976254 -1.5744140765 -1.9540397617 -1.9805691894 -1.5427384975 
-0.70114462528 0.071664169603 0.50446195448 0.62692452863 0.43952009396 0.049636465419 -0.17044240279 0.13307922505 0.83888583972 
1.4958898404 1.8346685224 1.8205477683 1.5781181101 1.2327515143 0.71670095305 0.1623273494 -0.13963567583 0.029381578451 
0.5973800214 1.1240522362 1.2604990135 1.2293079105 1.4394350944 1.7463082998 1.6980392813 1.0975027454 0.26354245682 
-0.091702545601 0.1098274976 0.30601857926 0.37386563582 0.39408999759 0.12189015495 -0.58326244813 -1.3343724999 -1.8197968898 
-1.998514437 -1.7497008806 -1.0954890209 -0.22543467157 0.62353085333 1.0697246171 0.96971490073 0.6890785181 0.5907855707 
0.64032932672 0.69586189904 0.99333752001 1.4795592936 1.6421792076 1.3255086612 0.80233521102 0.1473320519 -0.63034928114 
-1.3766694754 -1.7820662355 -1.5921016584 -0.98533258463 -0.39234247419 -0.12600882922 -0.40489484072 -1.0351571207 -1.2703618626 
-0.93922248035 -0.66292600743 -0.9020640035 -1.2472513561 -0.99733943576 -0.39767528042 0.079419425122 0.39378671491 0.51360875654 
0.56613618063 0.53113698781 0.17174131215 -0.33064131144 -0.63564237451 -0.7036093281 -0.45410818663 0.1161142289 0.70809969026 
0.89403017314 0.46574252126 -0.64877678009 -1.4111302652 -1.9401301267 -1.8484971056 -1.3833982232 -0.89251578793 -0.50802343233 
-0.17260833278 0.16941212518 0.30450853586 0.074930035821 -0.22165253207 -0.11147876525 0.27696746607 0.43002281793 0.18966044834 
-0.16713935431 -0.0026955779887 1.0798045323 2.3504035184 2.8453165536 2.5432054273 2.0913948649 1.8025782896 1.3992682922 
0.87837104598 0.54559072724 0.40124915067 0.2785503616 0.22461616343 0.48815018126 1.1061871521 1.6794905484 1.8934277377 
1.5539802551 0.69717681791 -0.19559415258 -0.83280058418 -1.0989785668 -0.82111150378 -0.15100481392 0.40073751296 0.51136652925 
0.24030860354 -0.22350424363 -0.6758670583 -0.73919627396 -0.38642923678 -0.046094196592 0.048110719067 -0.091476150415 -0.38432248184 
-0.6622712476 -0.86328921215 -1.0616875544 -1.292022277 -1.356558043 -1.1657874041 -0.89311193534 -0.55547952562 -0.14327371796 
0.061543996635 -0.27148238486 -0.84496993731 -1.1755025566 -1.4534078412 -1.5975951419 -1.229139125 -0.87878900985 -1.0425846439 
-1.12155591 -0.71479113921 -0.44539530095 -0.6919137245 -0.83044803807 -0.17642607217 0.88071736174 1.2839109362 0.72364094924 
-0.10739565678 -0.7279145466 -1.1451173066 -1.1670574924 -0.80112226865 -0.48381142104 -0.35729451669 -0.14839254858 0.29087408854 
0.58904939729 0.21830487406 -0.58761652276 -1.1800339844 -1.4883920094 -1.3610876688 -0.70852884351 -0.31487021847 -0.41755751083 
-0.51080043639 -0.53687001923 -0.69525502916 -1.1445069579 -1.6488489998 -1.6243996472 -1.0699249314 -0.43021216263 -0.0014480716201 
0.12746891951 -0.025315048274 -0.31895296726 -0.6478459533 -1.0804341514 -1.3940479943 -1.3622639911 -1.1974037833 -1.0499037625 
-0.80678360287 -0.47049402233 -0.10439723129 0.11794049158 0.19605598142 0.32929628527 0.31707386646 0.063644541962 -0.23580109215 
-0.56438706867 -0.843680734 -0.83409662814 -0.46726783752 0.049568626195 0.13713845392 -0.28304440868 -0.42059570463 -0.0095037738025 
0.36745443996 0.26668071908 -0.069746005268 -0.23966829489 -0.14625589353 0.048645012684 0.11105398036 0.26385824007 0.88751157232 
1.5379612196 1.6220032159 1.3910500856 1.1857314594 0.82173514786 0.20309375513 -0.310861671 -0.32610056882 0.042924520764 
0.28525055427 0.14992146058 -0.020999888642 0.30859626906 0.96650424577 1.2003792874 0.81640536433 0.34368128157 0.096484075043 
-0.19368039848 -0.60141203793 -0.92046535319 -0.97306601244 -0.63933093689 -0.133693442 -0.031985237617 -0.6197488483 -1.4195356586 
-1.691339587 -1.5710843121 -1.7086528104 -1.9378167466 -1.625106213 -0.74938352467 0.10978679045 0.54214096175 0.70036575879 
0.79481251116 0.90895512823 1.202523061 1.5487604925 1.5988531167 1.2969839704 1.0164512988 0.98567939974 0.84206643082 
0.43991899945 0.18764869579 0.21273306968 0.57069985742 1.3632645833 2.2672405007 2.7629413967 2.6434880235 2.2432654389 
2.034030254 1.9325654295 1.5934202706 1.0519120619 0.58394223828 0.37384485918 0.29359824872 0.3259013178 0.47674284966 
0.46299209257 0.064938640049 -0.50216688028 -0.8875552591 -1.0441162699 -0.97656138352 -0.61078142937 -0.10608964111 0.24953982044 
0.29603897551 0.21780911823 0.27300334764 0.38929836327 0.43748205052 0.43306979923 0.51040280007 0.73700621315 1.0407732728 
1.2396594692 1.1913912678 0.81953163825 0.18200958279 -0.64117149362 -1.3773572585 -1.6042640173 -1.4183542823 -1.026839092 
-0.55467499165 -0.41981861307 -0.57051393781 -0.45613040796 0.003242976229 0.33027886201 0.21450417908 -0.0078028746662 0.026538540231 
-0.041209295478 -0.18694629978 0.023102218144 0.33201233775 0.49837397744 0.48615506597 0.12217311581 -0.25190213203 -0.15958306432 
-0.05938424138 -0.37032717172 -0.68081680434 -0.56816063538 -0.25605883643 -0.20875806242 -0.96317401598 -1.3773148654 -1.9716092398 
-2.3659361973 -2.1488338076 -1.4913428769 -0.89199947018 -0.48352417614 -0.19437982026 -0.12248670025 -0.37777903872 -0.5446438804 
-0.23727045178 0.086384852397 -0.15333410976 -0.81632259289 -1.1573433963 -0.5212048063 0.92538517234 2.2286224738 2.7280420814 
2.5445677478 2.1317573549 1.7151903089 1.1552784074 0.59004292879 0.38247212715 0.48198301154 0.55595458008 0.4758284648 
0.38537655238 0.62886873153 1.2829512347 1.824901925 1.6344663394 0.83129838347 0.17225220686 -0.096266845528 -0.32491482341 
-0.55951682928 -0.51364862129 -0.28107970549 -0.260981273 -0.41861419217 -0.45771895783 -0.49880797997 -0.42202050339 0.07204666857 
0.54314002182 0.61846534547 0.46050587763 0.19557996693 -0.022574830233 -0.13709710833 -0.22350398375 -0.19674629076 -0.12929605507 
-0.22001211832 -0.30240001083 -0.17104282979 0.15058917504 0.35291476425 -0.0095470138123 -0.72679215707 -1.2658659814 -1.5945355632 
-1.64518385 -1.389694486 -1.2162897445 -1.1750262055 -1.0251542197 -0.77533932081 -0.59064497136 -0.54886441868 -0.50634028033 
-0.28454713031 0.015422320411 0.092828236783 -0.0058427027408 0.088950179774 0.27113988419 0.18978048485 0.07382548523 -0.040144715011 
-0.27779812545 -0.2982943983 -0.070253237316 0.10643243405 0.019815450504 -0.40214784108 -0.94848634897 -1.3687750669 -1.7009025003 
-1.7485066853 -1.2898271711 -0.68698251853 -0.43558075586 -0.66991029701 -1.0874741762 -1.3384513944 -1.4758393725 -1.6243719889 
-1.6122886336 -1.3210812424 -0.95300566931 -0.66533598303 -0.36512555219 -0.17478526008 -0.23865762771 -0.46062774277 -0.88536523049 
-1.3059790963 -1.5565744714 -1.7497430311 -1.648811244 -0.82313894178 0.40090532573 1.2055389187 1.246796774 0.97756581744 
0.8142490719 0.53991270096 0.007900919066 -0.55534455293 -0.82156497214 -0.7904153517 -0.6172028299 -0.21956254716 0.37364971171 
0.60399756518 0.31028416821 0.090758203639 0.22688336088 0.45393517414 0.54453714259 0.50392788224 0.40434409693 0.27143970045 
0.2218468977 0.32565562074 0.57446442315 1.0535509828 1.4994245936 1.630171147 1.7067199278 1.6271666947 1.0307407364 
0.11783371442 -0.63439876149 -0.87228783533 -0.63204172726 -0.24146464856 0.01952398782 0.25590509377 0.74067986292 1.3191672357 
1.5823600573 1.3156786359 0.9445448897 0.77328155897 0.46181941199 -0.062209357867 -0.5998318801 -0.98536352179 -0.99834804315 
-0.69476637755 -0.61537257922 -0.90141853693 -1.2175352535 -1.2743922489 -1.0532512027 -0.93427857701 -1.1049821492 -1.0944604136 
-0.45055119583 0.27937903308 0.44737409216 0.41330928902 0.71218900977 1.3073672926 1.7719137253 1.6012936713 0.73004616198 
-0.31258346731 -0.66372430061 -0.14987972312 0.30192979636 0.32558352497 0.45436718141 0.81151035422 1.1858342015 1.6361121755 
2.2351962401 2.728469722 2.67844056 2.0653253469 1.4666192965 1.2688450647 1.2750091782 1.1671418148 0.78283668811 
0.40239455088 0.26572474839 0.15320670076 -0.014403370801 -0.032303561968 0.024444879149 -0.099697527361 -0.27338923114 -0.23434023846 
-0.031254619416 0.27066385611 0.51028907231 0.51393555351 0.34506072716 0.040995923192 -0.28284388039 -0.3383851685 -0.023442578886 
0.33539500187 0.317449429 0.083010097586 0.052010239257 0.2377898233 0.34692835184 0.30607651582 0.22325263178 0.02742288901 
-0.33170104066 -0.63971665652 -0.78675635195 -0.64603805904 -0.23150503272 -0.05862415965 -0.27773365376 -0.44965015619 -0.23428964582 
0.20791426784 0.7968588837 1.3876626584 1.4819307166 0.96129044157 0.35281955925 0.1466282833 0.14596042992 0.02492238943 
-0.19205468993 -0.372452154 -0.34182381265 -0.062031259521 0.088557222594 -0.16306437569 -0.53489591998 -0.69951825303 -0.72445957962 
-0.7805922888 -1.3108635896 -1.6903206221 -2.1028380061 -2.4987940233 -2.3708770608 -1.7094743825 -1.1357876971 -0.91919331973 
-0.73150841759 -0.38994287909 -0.17581286372 -0.065171882426 0.043780228119 -0.20939116319 -1.0016595539 -1.7229256925 -1.5921392617 
-0.54406789839 0.64423066281 1.256430358 1.3003362951 1.215462351 1.2209743344 1.1054360468 0.79901347036 0.56972622992 
0.60579072146 0.80000329416 0.91877548954 0.74438780038 0.16646213419 -0.33159485911 -0.16620065508 0.40160855142 0.78187204759 
0.80073951752 0.68099643054 0.52655208391 0.12974180037 -0.43783515312 -0.87565401976 -1.0764799278 -0.99627451288 -0.56923914165 
0.046955830599 0.37146672073 0.30254016707 0.29662436714 0.45474856441 0.59784059685 0.55861774903 0.37624721124 0.34250202999 
0.51473458372 0.70370078589 0.78133424088 0.55879469112 0.060586824276 -0.2705806944 -0.30338998273 -0.26772900619 -0.38319443685 
-0.68637498656 -0.99755194496 -1.1560513587 -1.1473398506 -1.1619301003 -1.3538690813 -1.4186826957 -1.1484730414 -1.015760086 
-1.0921684851 -0.84234655315 -0.2832290643 0.10565735761 0.018440636375 -0.31345424753 -0.51054347913 -0.42122293314 -0.018978975699 
0.38718185932 0.53151689333 0.58596411001 0.48813804766 0.2556456684 0.2455090598 0.31946621251 0.19153988999 0.017604709556 
-0.061789959805 -0.26231825306 -0.69279586843 -1.0957178331 -1.3297019408 -1.3743120717 -0.93253857198 -0.31345655877 -0.28980110425 
-0.75032273376 -1.0974904434 -1.0993162095 -0.96472640211 -0.81974247226 -0.57325886593 -0.30558843968 -0.15633330204 -0.035052423495 
0.027460364222 -0.14514519682 -0.36605986931 -0.50859553865 -0.67511780277 -1.0177091759 -1.4735304561 -1.636774989 -0.98161224368 
0.3175323092 1.2607537548 1.3937086216 1.1423281342 0.93918800121 0.82681441257 0.61413220689 0.32960371314 0.24296061972 
0.28400993842 0.33807066841 0.40914053156 0.43310161334 0.41871159377 0.31955466327 0.11720056997 0.042200808559 0.29748682035 
0.84048273422 1.3955153469 1.5951346525 1.2563151595 0.74018967334 0.56803250633 0.71285035752 0.9035320108 1.0848788023 
1.3077873021 1.4875771753 1.3353105071 0.76827673363 0.10496889966 -0.32869071142 -0.46425016139 -0.36416774704 0.012309996377 
0.57352148341 1.0895197326 1.341609745 1.3559872333 1.3297335177 1.0853418943 0.6788795185 0.45540357399 0.44407486888 
0.41215743429 0.16893292482 -0.29235803243 -0.80930120295 -1.0512262626 -1.0152842132 -0.8121002948 -0.62289024213 -0.66997642507 
-0.64654575031 -0.2712393654 0.092506060721 0.23366057824 0.46726852559 0.70353522353 0.56815526214 0.22519097266 0.18019321782 
0.58861485686 0.93006759016 0.54557367471 -0.52340452518 -1.5490778865 -1.7172899017 -0.99322116686 -0.18667045778 0.33108193418 
0.75450705556 1.1706992744 1.4023624132 1.2746431326 1.0850599704 1.2374421642 1.5005828547 1.2874237677 0.52313216837 
-0.16155970712 -0.27486900732 -0.096094176263 0.0025477355549 0.082896242828 0.17738993399 -0.022678816386 -0.53205926688 -0.873587608 
-0.80066890331 -0.56053802975 -0.33127319528 0.033008174326 0.47139098469 0.68647292503 0.49086302903 0.12789763414 -0.12075194859 
-0.55686481211 -0.99904273639 -0.77065545659 -0.13316539486 0.28233650256 0.20229806512 -0.15786801526 -0.37954133972 -0.43252142771 
-0.62248045728 -0.75361527166 -0.37558500193 0.27920779969 0.59288998777 0.38378850706 0.086439435529 0.049324080832 0.091257481108 
-0.1468662278 -0.68546617025 -1.1917490313 -1.1828295231 -0.56292262195 0.49364868167 1.4703228631 1.7373425473 1.4743602284 
1.1156620896 0.83991929769 0.60893437399 0.32496301326 0.088612229129 0.063226994092 0.14650216901 0.075128308724 -0.011630915906 
0.095223531695 0.20538841631 0.077678293857 -0.28558997379 -0.80931539045 -1.25872986 -1.6591101063 -1.9187296669 -2.0865907215 
-1.9359186726 -1.5160577998 -1.1695115471 -1.0040049663 -0.74719606214 -0.24748664675 0.43707420774 0.99048435505 0.86753861315 
0.032246009229 -0.90577452284 -1.2376643071 -0.76517480203 0.072851810062 0.52957627057 0.3459908803 -0.078858247579 -0.27825236875 
-0.1911761227 -0.094393706731 0.03328975275 0.21923519571 0.3143590907 0.37114436231 0.46154497019 0.39713066911 -0.030514396941 